 INFO
nunit      1    1    1
unit   cell
celltype   convcell
shape   parapipedal
 END_INFO
 DIM-GROUP
           3           5
 PRIMVEC
   -2.6988037640    0.0000000000    2.6988037640
    0.0000000000    2.6988037640    2.6988037640
   -2.6988037640    2.6988037640    0.0000000000
 CONVVEC
    5.3976075280    0.0000000000    0.0000000000
    0.0000000000    5.3976075280    0.0000000000
    0.0000000000    0.0000000000    5.3976075280
 PRIMCOORD
           1           1
 13      0.0000000000     0.0000000000     0.0000000000
 CONVCOORD
           1           4
 13      2.6988037640     2.6988037640     0.0000000000
 13      0.0000000000     0.0000000000     0.0000000000
 13      2.6988037640     0.0000000000     2.6988037640
 13      0.0000000000     2.6988037640     2.6988037640
 RECIP-PRIMVEC
   -0.1852672679   -0.1852672679    0.1852672679

    0.1852672679    0.1852672679    0.1852672679

   -0.1852672679    0.1852672679   -0.1852672679

 RECIP-CONVVEC
    0.1852672679    0.0000000000    0.0000000000

    0.0000000000    0.1852672679    0.0000000000

    0.0000000000    0.0000000000    0.1852672679

 WIGNER-SEITZ-PRIMCELL
           4
  0.1349402E+01 -0.1349402E+01 -0.1349402E+01   0.7071068E+00 -0.0000000E+00 -0.7071068E+00
  0.0000000E+00  0.0000000E+00 -0.2698804E+01   0.7071068E+00 -0.0000000E+00 -0.7071068E+00
  0.1349402E+01  0.1349402E+01 -0.1349402E+01   0.7071068E+00 -0.0000000E+00 -0.7071068E+00
  0.2698804E+01 -0.0000000E+00 -0.0000000E+00   0.7071068E+00 -0.0000000E+00 -0.7071068E+00
           4
  0.0000000E+00  0.2698804E+01  0.0000000E+00   0.0000000E+00  0.7071068E+00 -0.7071068E+00
  0.1349402E+01  0.1349402E+01 -0.1349402E+01   0.0000000E+00  0.7071068E+00 -0.7071068E+00
  0.0000000E+00  0.0000000E+00 -0.2698804E+01   0.0000000E+00  0.7071068E+00 -0.7071068E+00
 -0.1349402E+01  0.1349402E+01 -0.1349402E+01   0.0000000E+00  0.7071068E+00 -0.7071068E+00
           4
 -0.1349402E+01 -0.1349402E+01 -0.1349402E+01  -0.0000000E+00 -0.7071068E+00 -0.7071068E+00
  0.0000000E+00  0.0000000E+00 -0.2698804E+01  -0.0000000E+00 -0.7071068E+00 -0.7071068E+00
  0.1349402E+01 -0.1349402E+01 -0.1349402E+01  -0.0000000E+00 -0.7071068E+00 -0.7071068E+00
 -0.0000000E+00 -0.2698804E+01 -0.0000000E+00  -0.0000000E+00 -0.7071068E+00 -0.7071068E+00
           4
 -0.1349402E+01  0.1349402E+01 -0.1349402E+01  -0.7071068E+00 -0.0000000E+00 -0.7071068E+00
  0.0000000E+00  0.0000000E+00 -0.2698804E+01  -0.7071068E+00 -0.0000000E+00 -0.7071068E+00
 -0.1349402E+01 -0.1349402E+01 -0.1349402E+01  -0.7071068E+00 -0.0000000E+00 -0.7071068E+00
 -0.2698804E+01  0.0000000E+00  0.0000000E+00  -0.7071068E+00 -0.0000000E+00 -0.7071068E+00
           4
  0.2698804E+01 -0.0000000E+00 -0.0000000E+00   0.7071068E+00  0.7071068E+00 -0.0000000E+00
  0.1349402E+01  0.1349402E+01 -0.1349402E+01   0.7071068E+00  0.7071068E+00 -0.0000000E+00
  0.0000000E+00  0.2698804E+01  0.0000000E+00   0.7071068E+00  0.7071068E+00 -0.0000000E+00
  0.1349402E+01  0.1349402E+01  0.1349402E+01   0.7071068E+00  0.7071068E+00 -0.0000000E+00
           4
  0.1349402E+01 -0.1349402E+01  0.1349402E+01   0.7071068E+00 -0.7071068E+00  0.0000000E+00
 -0.0000000E+00 -0.2698804E+01 -0.0000000E+00   0.7071068E+00 -0.7071068E+00  0.0000000E+00
  0.1349402E+01 -0.1349402E+01 -0.1349402E+01   0.7071068E+00 -0.7071068E+00  0.0000000E+00
  0.2698804E+01 -0.0000000E+00 -0.0000000E+00   0.7071068E+00 -0.7071068E+00  0.0000000E+00
           4
 -0.0000000E+00 -0.0000000E+00  0.2698804E+01   0.7071068E+00  0.0000000E+00  0.7071068E+00
  0.1349402E+01 -0.1349402E+01  0.1349402E+01   0.7071068E+00  0.0000000E+00  0.7071068E+00
  0.2698804E+01 -0.0000000E+00 -0.0000000E+00   0.7071068E+00  0.0000000E+00  0.7071068E+00
  0.1349402E+01  0.1349402E+01  0.1349402E+01   0.7071068E+00  0.0000000E+00  0.7071068E+00
           4
  0.0000000E+00  0.2698804E+01  0.0000000E+00  -0.7071068E+00  0.7071068E+00 -0.0000000E+00
 -0.1349402E+01  0.1349402E+01 -0.1349402E+01  -0.7071068E+00  0.7071068E+00 -0.0000000E+00
 -0.2698804E+01  0.0000000E+00  0.0000000E+00  -0.7071068E+00  0.7071068E+00 -0.0000000E+00
 -0.1349402E+01  0.1349402E+01  0.1349402E+01  -0.7071068E+00  0.7071068E+00 -0.0000000E+00
           4
  0.0000000E+00  0.0000000E+00  0.2698804E+01   0.0000000E+00  0.7071068E+00  0.7071068E+00
  0.1349402E+01  0.1349402E+01  0.1349402E+01   0.0000000E+00  0.7071068E+00  0.7071068E+00
  0.0000000E+00  0.2698804E+01  0.0000000E+00   0.0000000E+00  0.7071068E+00  0.7071068E+00
 -0.1349402E+01  0.1349402E+01  0.1349402E+01   0.0000000E+00  0.7071068E+00  0.7071068E+00
           4
 -0.1349402E+01 -0.1349402E+01  0.1349402E+01  -0.7071068E+00 -0.7071068E+00  0.0000000E+00
 -0.2698804E+01 -0.0000000E+00 -0.0000000E+00  -0.7071068E+00 -0.7071068E+00  0.0000000E+00
 -0.1349402E+01 -0.1349402E+01 -0.1349402E+01  -0.7071068E+00 -0.7071068E+00  0.0000000E+00
 -0.0000000E+00 -0.2698804E+01 -0.0000000E+00  -0.7071068E+00 -0.7071068E+00  0.0000000E+00
           4
 -0.1349402E+01 -0.1349402E+01  0.1349402E+01  -0.0000000E+00 -0.7071068E+00  0.7071068E+00
 -0.0000000E+00 -0.2698804E+01 -0.0000000E+00  -0.0000000E+00 -0.7071068E+00  0.7071068E+00
  0.1349402E+01 -0.1349402E+01  0.1349402E+01  -0.0000000E+00 -0.7071068E+00  0.7071068E+00
 -0.0000000E+00 -0.0000000E+00  0.2698804E+01  -0.0000000E+00 -0.7071068E+00  0.7071068E+00
           4
 -0.0000000E+00 -0.0000000E+00  0.2698804E+01  -0.7071068E+00  0.0000000E+00  0.7071068E+00
 -0.1349402E+01  0.1349402E+01  0.1349402E+01  -0.7071068E+00  0.0000000E+00  0.7071068E+00
 -0.2698804E+01 -0.0000000E+00 -0.0000000E+00  -0.7071068E+00  0.0000000E+00  0.7071068E+00
 -0.1349402E+01 -0.1349402E+01  0.1349402E+01  -0.7071068E+00  0.0000000E+00  0.7071068E+00
 WIGNER-SEITZ-PRIMCELL_END
 WIGNER-SEITZ-CONVCELL
           4
 -0.2698804E+01 -0.2698804E+01  0.2698804E+01  -0.1000000E+01  0.0000000E+00  0.0000000E+00
 -0.2698804E+01  0.2698804E+01  0.2698804E+01  -0.1000000E+01  0.0000000E+00  0.0000000E+00
 -0.2698804E+01  0.2698804E+01 -0.2698804E+01  -0.1000000E+01  0.0000000E+00  0.0000000E+00
 -0.2698804E+01 -0.2698804E+01 -0.2698804E+01  -0.1000000E+01  0.0000000E+00  0.0000000E+00
           4
 -0.2698804E+01 -0.2698804E+01 -0.2698804E+01  -0.0000000E+00 -0.1000000E+01 -0.0000000E+00
  0.2698804E+01 -0.2698804E+01 -0.2698804E+01  -0.0000000E+00 -0.1000000E+01 -0.0000000E+00
  0.2698804E+01 -0.2698804E+01  0.2698804E+01  -0.0000000E+00 -0.1000000E+01 -0.0000000E+00
 -0.2698804E+01 -0.2698804E+01  0.2698804E+01  -0.0000000E+00 -0.1000000E+01 -0.0000000E+00
           4
 -0.2698804E+01  0.2698804E+01 -0.2698804E+01   0.0000000E+00  0.0000000E+00 -0.1000000E+01
  0.2698804E+01  0.2698804E+01 -0.2698804E+01   0.0000000E+00  0.0000000E+00 -0.1000000E+01
  0.2698804E+01 -0.2698804E+01 -0.2698804E+01   0.0000000E+00  0.0000000E+00 -0.1000000E+01
 -0.2698804E+01 -0.2698804E+01 -0.2698804E+01   0.0000000E+00  0.0000000E+00 -0.1000000E+01
           4
 -0.2698804E+01 -0.2698804E+01  0.2698804E+01  -0.0000000E+00 -0.0000000E+00  0.1000000E+01
  0.2698804E+01 -0.2698804E+01  0.2698804E+01  -0.0000000E+00 -0.0000000E+00  0.1000000E+01
  0.2698804E+01  0.2698804E+01  0.2698804E+01  -0.0000000E+00 -0.0000000E+00  0.1000000E+01
 -0.2698804E+01  0.2698804E+01  0.2698804E+01  -0.0000000E+00 -0.0000000E+00  0.1000000E+01
           4
 -0.2698804E+01  0.2698804E+01  0.2698804E+01   0.0000000E+00  0.1000000E+01  0.0000000E+00
  0.2698804E+01  0.2698804E+01  0.2698804E+01   0.0000000E+00  0.1000000E+01  0.0000000E+00
  0.2698804E+01  0.2698804E+01 -0.2698804E+01   0.0000000E+00  0.1000000E+01  0.0000000E+00
 -0.2698804E+01  0.2698804E+01 -0.2698804E+01   0.0000000E+00  0.1000000E+01  0.0000000E+00
           4
  0.2698804E+01 -0.2698804E+01 -0.2698804E+01   0.1000000E+01 -0.0000000E+00 -0.0000000E+00
  0.2698804E+01  0.2698804E+01 -0.2698804E+01   0.1000000E+01 -0.0000000E+00 -0.0000000E+00
  0.2698804E+01  0.2698804E+01  0.2698804E+01   0.1000000E+01 -0.0000000E+00 -0.0000000E+00
  0.2698804E+01 -0.2698804E+01  0.2698804E+01   0.1000000E+01 -0.0000000E+00 -0.0000000E+00
 WIGNER-SEITZ-CONVCELL_END
 BRILLOUIN-ZONE-PRIMCELL
           6
  0.0000000E+00 -0.1852673E+00 -0.9263363E-01   0.5773503E+00 -0.5773503E+00 -0.5773503E+00
 -0.0000000E+00 -0.9263363E-01 -0.1852673E+00   0.5773503E+00 -0.5773503E+00 -0.5773503E+00
  0.9263363E-01  0.0000000E+00 -0.1852673E+00   0.5773503E+00 -0.5773503E+00 -0.5773503E+00
  0.1852673E+00 -0.0000000E+00 -0.9263363E-01   0.5773503E+00 -0.5773503E+00 -0.5773503E+00
  0.1852673E+00 -0.9263363E-01  0.0000000E+00   0.5773503E+00 -0.5773503E+00 -0.5773503E+00
  0.9263363E-01 -0.1852673E+00 -0.0000000E+00   0.5773503E+00 -0.5773503E+00 -0.5773503E+00
           4
 -0.9263363E-01  0.0000000E+00 -0.1852673E+00   0.2021589E-15  0.0000000E+00 -0.1000000E+01
 -0.0000000E+00  0.9263363E-01 -0.1852673E+00   0.2021589E-15  0.0000000E+00 -0.1000000E+01
  0.9263363E-01  0.0000000E+00 -0.1852673E+00   0.2021589E-15  0.0000000E+00 -0.1000000E+01
 -0.0000000E+00 -0.9263363E-01 -0.1852673E+00   0.2021589E-15  0.0000000E+00 -0.1000000E+01
           6
  0.1852673E+00 -0.0000000E+00 -0.9263363E-01   0.5773503E+00  0.5773503E+00 -0.5773503E+00
  0.9263363E-01  0.0000000E+00 -0.1852673E+00   0.5773503E+00  0.5773503E+00 -0.5773503E+00
 -0.0000000E+00  0.9263363E-01 -0.1852673E+00   0.5773503E+00  0.5773503E+00 -0.5773503E+00
  0.0000000E+00  0.1852673E+00 -0.9263363E-01   0.5773503E+00  0.5773503E+00 -0.5773503E+00
  0.9263363E-01  0.1852673E+00 -0.0000000E+00   0.5773503E+00  0.5773503E+00 -0.5773503E+00
  0.1852673E+00  0.9263363E-01  0.0000000E+00   0.5773503E+00  0.5773503E+00 -0.5773503E+00
           6
 -0.9263363E-01 -0.1852673E+00 -0.0000000E+00  -0.5773503E+00 -0.5773503E+00 -0.5773503E+00
 -0.1852673E+00 -0.9263363E-01  0.0000000E+00  -0.5773503E+00 -0.5773503E+00 -0.5773503E+00
 -0.1852673E+00 -0.0000000E+00 -0.9263363E-01  -0.5773503E+00 -0.5773503E+00 -0.5773503E+00
 -0.9263363E-01  0.0000000E+00 -0.1852673E+00  -0.5773503E+00 -0.5773503E+00 -0.5773503E+00
 -0.0000000E+00 -0.9263363E-01 -0.1852673E+00  -0.5773503E+00 -0.5773503E+00 -0.5773503E+00
  0.0000000E+00 -0.1852673E+00 -0.9263363E-01  -0.5773503E+00 -0.5773503E+00 -0.5773503E+00
           4
  0.1852673E+00 -0.9263363E-01  0.0000000E+00   0.1000000E+01 -0.0000000E+00 -0.0000000E+00
  0.1852673E+00 -0.0000000E+00 -0.9263363E-01   0.1000000E+01 -0.0000000E+00 -0.0000000E+00
  0.1852673E+00  0.9263363E-01  0.0000000E+00   0.1000000E+01 -0.0000000E+00 -0.0000000E+00
  0.1852673E+00 -0.0000000E+00  0.9263363E-01   0.1000000E+01 -0.0000000E+00 -0.0000000E+00
           6
  0.0000000E+00 -0.1852673E+00  0.9263363E-01   0.5773503E+00 -0.5773503E+00  0.5773503E+00
  0.9263363E-01 -0.1852673E+00 -0.0000000E+00   0.5773503E+00 -0.5773503E+00  0.5773503E+00
  0.1852673E+00 -0.9263363E-01  0.0000000E+00   0.5773503E+00 -0.5773503E+00  0.5773503E+00
  0.1852673E+00 -0.0000000E+00  0.9263363E-01   0.5773503E+00 -0.5773503E+00  0.5773503E+00
  0.9263363E-01  0.0000000E+00  0.1852673E+00   0.5773503E+00 -0.5773503E+00  0.5773503E+00
 -0.0000000E+00 -0.9263363E-01  0.1852673E+00   0.5773503E+00 -0.5773503E+00  0.5773503E+00
           4
  0.0000000E+00 -0.1852673E+00  0.9263363E-01  -0.0000000E+00 -0.1000000E+01 -0.2021589E-15
 -0.9263363E-01 -0.1852673E+00 -0.0000000E+00  -0.0000000E+00 -0.1000000E+01 -0.2021589E-15
  0.0000000E+00 -0.1852673E+00 -0.9263363E-01  -0.0000000E+00 -0.1000000E+01 -0.2021589E-15
  0.9263363E-01 -0.1852673E+00 -0.0000000E+00  -0.0000000E+00 -0.1000000E+01 -0.2021589E-15
           6
 -0.1852673E+00  0.9263363E-01  0.0000000E+00  -0.5773503E+00  0.5773503E+00 -0.5773503E+00
 -0.9263363E-01  0.1852673E+00 -0.0000000E+00  -0.5773503E+00  0.5773503E+00 -0.5773503E+00
  0.0000000E+00  0.1852673E+00 -0.9263363E-01  -0.5773503E+00  0.5773503E+00 -0.5773503E+00
 -0.0000000E+00  0.9263363E-01 -0.1852673E+00  -0.5773503E+00  0.5773503E+00 -0.5773503E+00
 -0.9263363E-01  0.0000000E+00 -0.1852673E+00  -0.5773503E+00  0.5773503E+00 -0.5773503E+00
 -0.1852673E+00 -0.0000000E+00 -0.9263363E-01  -0.5773503E+00  0.5773503E+00 -0.5773503E+00
           6
  0.1852673E+00 -0.0000000E+00  0.9263363E-01   0.5773503E+00  0.5773503E+00  0.5773503E+00
  0.1852673E+00  0.9263363E-01  0.0000000E+00   0.5773503E+00  0.5773503E+00  0.5773503E+00
  0.9263363E-01  0.1852673E+00 -0.0000000E+00   0.5773503E+00  0.5773503E+00  0.5773503E+00
  0.0000000E+00  0.1852673E+00  0.9263363E-01   0.5773503E+00  0.5773503E+00  0.5773503E+00
 -0.0000000E+00  0.9263363E-01  0.1852673E+00   0.5773503E+00  0.5773503E+00  0.5773503E+00
  0.9263363E-01  0.0000000E+00  0.1852673E+00   0.5773503E+00  0.5773503E+00  0.5773503E+00
           4
  0.9263363E-01  0.1852673E+00 -0.0000000E+00   0.0000000E+00  0.1000000E+01 -0.2021589E-15
  0.0000000E+00  0.1852673E+00 -0.9263363E-01   0.0000000E+00  0.1000000E+01 -0.2021589E-15
 -0.9263363E-01  0.1852673E+00 -0.0000000E+00   0.0000000E+00  0.1000000E+01 -0.2021589E-15
  0.0000000E+00  0.1852673E+00  0.9263363E-01   0.0000000E+00  0.1000000E+01 -0.2021589E-15
           6
 -0.0000000E+00 -0.9263363E-01  0.1852673E+00  -0.5773503E+00 -0.5773503E+00  0.5773503E+00
 -0.9263363E-01  0.0000000E+00  0.1852673E+00  -0.5773503E+00 -0.5773503E+00  0.5773503E+00
 -0.1852673E+00 -0.0000000E+00  0.9263363E-01  -0.5773503E+00 -0.5773503E+00  0.5773503E+00
 -0.1852673E+00 -0.9263363E-01  0.0000000E+00  -0.5773503E+00 -0.5773503E+00  0.5773503E+00
 -0.9263363E-01 -0.1852673E+00 -0.0000000E+00  -0.5773503E+00 -0.5773503E+00  0.5773503E+00
  0.0000000E+00 -0.1852673E+00  0.9263363E-01  -0.5773503E+00 -0.5773503E+00  0.5773503E+00
           4
 -0.1852673E+00 -0.0000000E+00  0.9263363E-01  -0.1000000E+01  0.0000000E+00  0.0000000E+00
 -0.1852673E+00  0.9263363E-01  0.0000000E+00  -0.1000000E+01  0.0000000E+00  0.0000000E+00
 -0.1852673E+00 -0.0000000E+00 -0.9263363E-01  -0.1000000E+01  0.0000000E+00  0.0000000E+00
 -0.1852673E+00 -0.9263363E-01  0.0000000E+00  -0.1000000E+01  0.0000000E+00  0.0000000E+00
           4
 -0.0000000E+00 -0.9263363E-01  0.1852673E+00  -0.0000000E+00 -0.0000000E+00  0.1000000E+01
  0.9263363E-01  0.0000000E+00  0.1852673E+00  -0.0000000E+00 -0.0000000E+00  0.1000000E+01
 -0.0000000E+00  0.9263363E-01  0.1852673E+00  -0.0000000E+00 -0.0000000E+00  0.1000000E+01
 -0.9263363E-01  0.0000000E+00  0.1852673E+00  -0.0000000E+00 -0.0000000E+00  0.1000000E+01
           6
 -0.9263363E-01  0.0000000E+00  0.1852673E+00  -0.5773503E+00  0.5773503E+00  0.5773503E+00
 -0.0000000E+00  0.9263363E-01  0.1852673E+00  -0.5773503E+00  0.5773503E+00  0.5773503E+00
  0.0000000E+00  0.1852673E+00  0.9263363E-01  -0.5773503E+00  0.5773503E+00  0.5773503E+00
 -0.9263363E-01  0.1852673E+00 -0.0000000E+00  -0.5773503E+00  0.5773503E+00  0.5773503E+00
 -0.1852673E+00  0.9263363E-01  0.0000000E+00  -0.5773503E+00  0.5773503E+00  0.5773503E+00
 -0.1852673E+00 -0.0000000E+00  0.9263363E-01  -0.5773503E+00  0.5773503E+00  0.5773503E+00
 BRILLOUIN-ZONE-PRIMCELL_END
 BRILLOUIN-ZONE-CONVCELL
           4
 -0.9263363E-01 -0.9263363E-01  0.9263363E-01  -0.1000000E+01  0.0000000E+00  0.0000000E+00
 -0.9263363E-01  0.9263363E-01  0.9263363E-01  -0.1000000E+01  0.0000000E+00  0.0000000E+00
 -0.9263363E-01  0.9263363E-01 -0.9263363E-01  -0.1000000E+01  0.0000000E+00  0.0000000E+00
 -0.9263363E-01 -0.9263363E-01 -0.9263363E-01  -0.1000000E+01  0.0000000E+00  0.0000000E+00
           4
 -0.9263363E-01 -0.9263363E-01 -0.9263363E-01  -0.0000000E+00 -0.1000000E+01 -0.0000000E+00
  0.9263363E-01 -0.9263363E-01 -0.9263363E-01  -0.0000000E+00 -0.1000000E+01 -0.0000000E+00
  0.9263363E-01 -0.9263363E-01  0.9263363E-01  -0.0000000E+00 -0.1000000E+01 -0.0000000E+00
 -0.9263363E-01 -0.9263363E-01  0.9263363E-01  -0.0000000E+00 -0.1000000E+01 -0.0000000E+00
           4
 -0.9263363E-01  0.9263363E-01 -0.9263363E-01   0.0000000E+00  0.0000000E+00 -0.1000000E+01
  0.9263363E-01  0.9263363E-01 -0.9263363E-01   0.0000000E+00  0.0000000E+00 -0.1000000E+01
  0.9263363E-01 -0.9263363E-01 -0.9263363E-01   0.0000000E+00  0.0000000E+00 -0.1000000E+01
 -0.9263363E-01 -0.9263363E-01 -0.9263363E-01   0.0000000E+00  0.0000000E+00 -0.1000000E+01
           4
  0.9263363E-01 -0.9263363E-01  0.9263363E-01  -0.0000000E+00 -0.0000000E+00  0.1000000E+01
  0.9263363E-01  0.9263363E-01  0.9263363E-01  -0.0000000E+00 -0.0000000E+00  0.1000000E+01
 -0.9263363E-01  0.9263363E-01  0.9263363E-01  -0.0000000E+00 -0.0000000E+00  0.1000000E+01
 -0.9263363E-01 -0.9263363E-01  0.9263363E-01  -0.0000000E+00 -0.0000000E+00  0.1000000E+01
           4
 -0.9263363E-01  0.9263363E-01  0.9263363E-01   0.0000000E+00  0.1000000E+01  0.0000000E+00
  0.9263363E-01  0.9263363E-01  0.9263363E-01   0.0000000E+00  0.1000000E+01  0.0000000E+00
  0.9263363E-01  0.9263363E-01 -0.9263363E-01   0.0000000E+00  0.1000000E+01  0.0000000E+00
 -0.9263363E-01  0.9263363E-01 -0.9263363E-01   0.0000000E+00  0.1000000E+01  0.0000000E+00
           4
  0.9263363E-01 -0.9263363E-01  0.9263363E-01   0.1000000E+01 -0.0000000E+00 -0.0000000E+00
  0.9263363E-01 -0.9263363E-01 -0.9263363E-01   0.1000000E+01 -0.0000000E+00 -0.0000000E+00
  0.9263363E-01  0.9263363E-01 -0.9263363E-01   0.1000000E+01 -0.0000000E+00 -0.0000000E+00
  0.9263363E-01  0.9263363E-01  0.9263363E-01   0.1000000E+01 -0.0000000E+00 -0.0000000E+00
 BRILLOUIN-ZONE-CONVCELL_END
 ATOMS
   13    2.6988037640    2.6988037640    0.0000000000
   13    0.0000000000    0.0000000000    0.0000000000
   13    2.6988037640    0.0000000000    2.6988037640
   13    0.0000000000    2.6988037640    2.6988037640
   13    2.6988037640    2.6988037640    5.3976075280
   13    0.0000000000    0.0000000000    5.3976075280
   13    0.0000000000    5.3976075280    0.0000000000
   13    2.6988037640    5.3976075280    2.6988037640
   13    0.0000000000    5.3976075280    5.3976075280
   13    5.3976075280    0.0000000000    0.0000000000
   13    5.3976075280    2.6988037640    2.6988037640
   13    5.3976075280    0.0000000000    5.3976075280
   13    5.3976075280    5.3976075280    0.0000000000
   13    5.3976075280    5.3976075280    5.3976075280
 FRAMES
1      0.0000000000    0.0000000000    0.0000000000      5.3976075280    0.0000000000    0.0000000000
1      0.0000000000    0.0000000000    0.0000000000      0.0000000000    5.3976075280    0.0000000000
1      0.0000000000    0.0000000000    0.0000000000      0.0000000000    0.0000000000    5.3976075280
1      0.0000000000    0.0000000000    5.3976075280      5.3976075280    0.0000000000    5.3976075280
1      0.0000000000    0.0000000000    5.3976075280      0.0000000000    5.3976075280    5.3976075280
1      0.0000000000    5.3976075280    0.0000000000      5.3976075280    5.3976075280    0.0000000000
1      0.0000000000    5.3976075280    0.0000000000      0.0000000000    5.3976075280    5.3976075280
1      0.0000000000    5.3976075280    5.3976075280      5.3976075280    5.3976075280    5.3976075280
1      5.3976075280    0.0000000000    0.0000000000      5.3976075280    5.3976075280    0.0000000000
1      5.3976075280    0.0000000000    0.0000000000      5.3976075280    0.0000000000    5.3976075280
1      5.3976075280    0.0000000000    5.3976075280      5.3976075280    5.3976075280    5.3976075280
1      5.3976075280    5.3976075280    0.0000000000      5.3976075280    5.3976075280    5.3976075280
