
     Program PWSCF v.6.6 starts on  2Apr2025 at 12:48: 1 

     This program is part of the open-source Quantum ESPRESSO suite
     for quantum simulation of materials; please cite
         "P. Giannozzi et al., J. Phys.:Condens. Matter 21 395502 (2009);
         "P. Giannozzi et al., J. Phys.:Condens. Matter 29 465901 (2017);
          URL http://www.quantum-espresso.org", 
     in publications or presentations arising from this work. More details at
     http://www.quantum-espresso.org/quote

     Parallel version (MPI), running on     1 processors

     MPI processes distributed on     1 nodes
     Fft bands division:     nmany     =       1
     Reading input from Al.scf.60.444.in

     Current dimensions of program PWSCF are:
     Max number of different atomic species (ntypx) = 10
     Max number of k-points (npk) =  40000
     Max angular momentum in pseudopotentials (lmaxx) =  3
     file Al.pbesol-n-kjpaw_psl.1.0.0.UPF: wavefunction(s)  3S 3P renormalized

     Subspace diagonalization in iterative solution of the eigenvalue problem:
     a serial algorithm will be used


     G-vector sticks info
     --------------------
     sticks:   dense  smooth     PW     G-vecs:    dense   smooth      PW
     Sum         859     859    253                16625    16625    2733



     bravais-lattice index     =            2
     lattice parameter (alat)  =      10.2000  a.u.
     unit-cell volume          =     265.3020 (a.u.)^3
     number of atoms/cell      =            1
     number of atomic types    =            1
     number of electrons       =         3.00
     number of Kohn-Sham states=            6
     kinetic-energy cutoff     =      60.0000  Ry
     charge density cutoff     =     240.0000  Ry
     convergence threshold     =      1.0E-06
     mixing beta               =       0.7000
     number of iterations used =            8  plain     mixing
     Exchange-correlation= SLA PW PSX PSC
                           (   1   4  10   8   0   0   0)

     celldm(1)=  10.200000  celldm(2)=   0.000000  celldm(3)=   0.000000
     celldm(4)=   0.000000  celldm(5)=   0.000000  celldm(6)=   0.000000

     crystal axes: (cart. coord. in units of alat)
               a(1) = (  -0.500000   0.000000   0.500000 )  
               a(2) = (   0.000000   0.500000   0.500000 )  
               a(3) = (  -0.500000   0.500000   0.000000 )  

     reciprocal axes: (cart. coord. in units 2 pi/alat)
               b(1) = ( -1.000000 -1.000000  1.000000 )  
               b(2) = (  1.000000  1.000000  1.000000 )  
               b(3) = ( -1.000000  1.000000 -1.000000 )  


     PseudoPot. # 1 for Al read from file:
     ../pseudo/Al.pbesol-n-kjpaw_psl.1.0.0.UPF
     MD5 check sum: fed048700f41f568201cacb08e201ac8
     Pseudo is Projector augmented-wave + core cor, Zval =  3.0
     Generated using "atomic" code by A. Dal Corso v.6.3
     Shape of augmentation charge: PSQ
     Using radial grid of 1135 points,  6 beta functions with: 
                l(1) =   0
                l(2) =   0
                l(3) =   1
                l(4) =   1
                l(5) =   2
                l(6) =   2
     Q(r) pseudized with 0 coefficients 


     atomic species   valence    mass     pseudopotential
        Al             3.00    26.98000     Al( 1.00)

     48 Sym. Ops., with inversion, found



   Cartesian axes

     site n.     atom                  positions (alat units)
         1           Al  tau(   1) = (   0.0000000   0.0000000   0.0000000  )

     number of k points=     8  Marzari-Vanderbilt smearing, width (Ry)=  0.0200
                       cart. coord. in units 2pi/alat
        k(    1) = (   0.0000000   0.0000000   0.0000000), wk =   0.0312500
        k(    2) = (  -0.2500000   0.2500000  -0.2500000), wk =   0.2500000
        k(    3) = (   0.5000000  -0.5000000   0.5000000), wk =   0.1250000
        k(    4) = (   0.0000000   0.5000000   0.0000000), wk =   0.1875000
        k(    5) = (   0.7500000  -0.2500000   0.7500000), wk =   0.7500000
        k(    6) = (   0.5000000   0.0000000   0.5000000), wk =   0.3750000
        k(    7) = (   0.0000000  -1.0000000   0.0000000), wk =   0.0937500
        k(    8) = (  -0.5000000  -1.0000000   0.0000000), wk =   0.1875000

     Dense  grid:    16625 G-vectors     FFT dimensions: (  36,  36,  36)

     Estimated max dynamical RAM per process >      61.09 MB

     Initial potential from superposition of free atoms

     starting charge    2.99781, renormalised to    3.00000
     Starting wfcs are    4 randomized atomic wfcs +    2 random wfcs
     Checking if some PAW data can be deallocated... 

     total cpu time spent up to now is        1.8 secs

     Self-consistent Calculation

     iteration #  1     ecut=    60.00 Ry     beta= 0.70
     Davidson diagonalization with overlap
     ethr =  1.00E-02,  avg # of iterations =  6.4

     Threshold (ethr) on eigenvalues was too large:
     Diagonalizing with lowered threshold

     Davidson diagonalization with overlap
     ethr =  1.29E-04,  avg # of iterations =  3.6

     total cpu time spent up to now is        2.9 secs

     total energy              =     -38.40174739 Ry
     estimated scf accuracy    <       0.00341865 Ry

     iteration #  2     ecut=    60.00 Ry     beta= 0.70
     Davidson diagonalization with overlap
     ethr =  1.14E-04,  avg # of iterations =  1.0

     total cpu time spent up to now is        3.4 secs

     total energy              =     -38.40184905 Ry
     estimated scf accuracy    <       0.00012408 Ry

     iteration #  3     ecut=    60.00 Ry     beta= 0.70
     Davidson diagonalization with overlap
     ethr =  4.14E-06,  avg # of iterations =  4.6

     total cpu time spent up to now is        4.1 secs

     End of self-consistent calculation

          k = 0.0000 0.0000 0.0000 (  2085 PWs)   bands (ev):

    -5.1256   7.4488   7.4488   7.4488  10.2185  10.2185

          k =-0.2500 0.2500-0.2500 (  2067 PWs)   bands (ev):

    -4.2309   3.2335   6.7613   6.7614   9.3950  10.6529

          k = 0.5000-0.5000 0.5000 (  2060 PWs)   bands (ev):

    -2.2825  -0.3798   6.4219   6.4219   9.0139   9.6335

          k = 0.0000 0.5000 0.0000 (  2045 PWs)   bands (ev):

    -3.9289   4.5085   5.3041   5.3042   7.5188   8.2734

          k = 0.7500-0.2500 0.7500 (  2081 PWs)   bands (ev):

    -2.0318   0.9835   3.2407   5.0120   7.2176  10.6063

          k = 0.5000 0.0000 0.5000 (  2085 PWs)   bands (ev):

    -2.8062   2.1221   2.6910   6.1482   8.5903  11.6865

          k = 0.0000-1.0000 0.0000 (  2100 PWs)   bands (ev):

    -1.0598   0.3451   4.2365   4.2365   6.1375   6.2947

          k =-0.5000-1.0000 0.0000 (  2120 PWs)   bands (ev):

    -0.7791   1.5250   1.5250   2.5087   9.9324  11.2553

     the Fermi energy is     1.2553 ev

!    total energy              =     -38.40187016 Ry

     total all-electron energy =      -484.579565 Ry
     estimated scf accuracy    <       0.00000058 Ry
     smearing contrib. (-TS)   =       0.00132103 Ry
     internal energy E=F+TS    =     -38.40319119 Ry

     The total energy is F=E-TS. E is the sum of the following terms:
     one-electron contribution =       1.48961020 Ry
     hartree contribution      =       0.08584692 Ry
     xc contribution           =      -2.25343743 Ry
     ewald contribution        =      -4.04546654 Ry
     one-center paw contrib.   =     -33.67974435 Ry

     convergence has been achieved in   3 iterations

     Writing output data file ./temp/Al.save/

     init_run     :      0.90s CPU      0.93s WALL (       1 calls)
     electrons    :      2.29s CPU      2.29s WALL (       1 calls)

     Called by init_run:
     wfcinit      :      0.08s CPU      0.08s WALL (       1 calls)
     potinit      :      0.28s CPU      0.29s WALL (       1 calls)
     hinit0       :      0.47s CPU      0.49s WALL (       1 calls)

     Called by electrons:
     c_bands      :      0.95s CPU      0.93s WALL (       4 calls)
     sum_band     :      0.38s CPU      0.34s WALL (       4 calls)
     v_of_rho     :      0.11s CPU      0.12s WALL (       4 calls)
     newd         :      0.18s CPU      0.21s WALL (       4 calls)
     PAW_pot      :      1.00s CPU      1.01s WALL (       4 calls)
     mix_rho      :      0.01s CPU      0.01s WALL (       4 calls)

     Called by c_bands:
     init_us_2    :      0.06s CPU      0.06s WALL (      72 calls)
     cegterg      :      0.82s CPU      0.81s WALL (      32 calls)

     Called by *egterg:
     cdiaghg      :      0.01s CPU      0.01s WALL (     149 calls)
     h_psi        :      0.74s CPU      0.74s WALL (     165 calls)
     s_psi        :      0.03s CPU      0.02s WALL (     165 calls)
     g_psi        :      0.01s CPU      0.01s WALL (     125 calls)

     Called by h_psi:
     h_psi:calbec :      0.03s CPU      0.03s WALL (     165 calls)
     vloc_psi     :      0.68s CPU      0.68s WALL (     165 calls)
     add_vuspsi   :      0.03s CPU      0.02s WALL (     165 calls)

     General routines
     calbec       :      0.03s CPU      0.03s WALL (     197 calls)
     fft          :      0.04s CPU      0.05s WALL (      45 calls)
     ffts         :      0.00s CPU      0.00s WALL (       4 calls)
     fftw         :      0.69s CPU      0.70s WALL (    1406 calls)

     Parallel routines

     PWSCF        :      4.06s CPU      4.12s WALL


   This run was terminated on:  12:48: 5   2Apr2025            

=------------------------------------------------------------------------------=
   JOB DONE.
=------------------------------------------------------------------------------=
