
     Program PWSCF v.6.6 starts on  2Apr2025 at 12:48: 5 

     This program is part of the open-source Quantum ESPRESSO suite
     for quantum simulation of materials; please cite
         "P. Giannozzi et al., J. Phys.:Condens. Matter 21 395502 (2009);
         "P. Giannozzi et al., J. Phys.:Condens. Matter 29 465901 (2017);
          URL http://www.quantum-espresso.org", 
     in publications or presentations arising from this work. More details at
     http://www.quantum-espresso.org/quote

     Parallel version (MPI), running on     1 processors

     MPI processes distributed on     1 nodes
     Fft bands division:     nmany     =       1
     Reading input from Al.scf.60.666.in

     Current dimensions of program PWSCF are:
     Max number of different atomic species (ntypx) = 10
     Max number of k-points (npk) =  40000
     Max angular momentum in pseudopotentials (lmaxx) =  3
     file Al.pbesol-n-kjpaw_psl.1.0.0.UPF: wavefunction(s)  3S 3P renormalized

     Subspace diagonalization in iterative solution of the eigenvalue problem:
     a serial algorithm will be used


     G-vector sticks info
     --------------------
     sticks:   dense  smooth     PW     G-vecs:    dense   smooth      PW
     Sum         859     859    253                16625    16625    2733



     bravais-lattice index     =            2
     lattice parameter (alat)  =      10.2000  a.u.
     unit-cell volume          =     265.3020 (a.u.)^3
     number of atoms/cell      =            1
     number of atomic types    =            1
     number of electrons       =         3.00
     number of Kohn-Sham states=            6
     kinetic-energy cutoff     =      60.0000  Ry
     charge density cutoff     =     240.0000  Ry
     convergence threshold     =      1.0E-06
     mixing beta               =       0.7000
     number of iterations used =            8  plain     mixing
     Exchange-correlation= SLA PW PSX PSC
                           (   1   4  10   8   0   0   0)

     celldm(1)=  10.200000  celldm(2)=   0.000000  celldm(3)=   0.000000
     celldm(4)=   0.000000  celldm(5)=   0.000000  celldm(6)=   0.000000

     crystal axes: (cart. coord. in units of alat)
               a(1) = (  -0.500000   0.000000   0.500000 )  
               a(2) = (   0.000000   0.500000   0.500000 )  
               a(3) = (  -0.500000   0.500000   0.000000 )  

     reciprocal axes: (cart. coord. in units 2 pi/alat)
               b(1) = ( -1.000000 -1.000000  1.000000 )  
               b(2) = (  1.000000  1.000000  1.000000 )  
               b(3) = ( -1.000000  1.000000 -1.000000 )  


     PseudoPot. # 1 for Al read from file:
     ../pseudo/Al.pbesol-n-kjpaw_psl.1.0.0.UPF
     MD5 check sum: fed048700f41f568201cacb08e201ac8
     Pseudo is Projector augmented-wave + core cor, Zval =  3.0
     Generated using "atomic" code by A. Dal Corso v.6.3
     Shape of augmentation charge: PSQ
     Using radial grid of 1135 points,  6 beta functions with: 
                l(1) =   0
                l(2) =   0
                l(3) =   1
                l(4) =   1
                l(5) =   2
                l(6) =   2
     Q(r) pseudized with 0 coefficients 


     atomic species   valence    mass     pseudopotential
        Al             3.00    26.98000     Al( 1.00)

     48 Sym. Ops., with inversion, found



   Cartesian axes

     site n.     atom                  positions (alat units)
         1           Al  tau(   1) = (   0.0000000   0.0000000   0.0000000  )

     number of k points=    16  Marzari-Vanderbilt smearing, width (Ry)=  0.0200
                       cart. coord. in units 2pi/alat
        k(    1) = (   0.0000000   0.0000000   0.0000000), wk =   0.0092593
        k(    2) = (  -0.1666667   0.1666667  -0.1666667), wk =   0.0740741
        k(    3) = (  -0.3333333   0.3333333  -0.3333333), wk =   0.0740741
        k(    4) = (   0.5000000  -0.5000000   0.5000000), wk =   0.0370370
        k(    5) = (   0.0000000   0.3333333   0.0000000), wk =   0.0555556
        k(    6) = (  -0.1666667   0.5000000  -0.1666667), wk =   0.2222222
        k(    7) = (   0.6666667  -0.3333333   0.6666667), wk =   0.2222222
        k(    8) = (   0.5000000  -0.1666667   0.5000000), wk =   0.2222222
        k(    9) = (   0.3333333   0.0000000   0.3333333), wk =   0.1111111
        k(   10) = (   0.0000000   0.6666667   0.0000000), wk =   0.0555556
        k(   11) = (   0.8333333  -0.1666667   0.8333333), wk =   0.2222222
        k(   12) = (   0.6666667  -0.0000000   0.6666667), wk =   0.1111111
        k(   13) = (   0.0000000  -1.0000000   0.0000000), wk =   0.0277778
        k(   14) = (   0.6666667  -0.3333333   1.0000000), wk =   0.2222222
        k(   15) = (   0.5000000  -0.1666667   0.8333333), wk =   0.2222222
        k(   16) = (  -0.3333333  -1.0000000   0.0000000), wk =   0.1111111

     Dense  grid:    16625 G-vectors     FFT dimensions: (  36,  36,  36)

     Estimated max dynamical RAM per process >      62.61 MB

     Initial potential from superposition of free atoms

     starting charge    2.99781, renormalised to    3.00000
     Starting wfcs are    4 randomized atomic wfcs +    2 random wfcs
     Checking if some PAW data can be deallocated... 

     total cpu time spent up to now is        1.9 secs

     Self-consistent Calculation

     iteration #  1     ecut=    60.00 Ry     beta= 0.70
     Davidson diagonalization with overlap
     ethr =  1.00E-02,  avg # of iterations =  5.9

     Threshold (ethr) on eigenvalues was too large:
     Diagonalizing with lowered threshold

     Davidson diagonalization with overlap
     ethr =  1.64E-04,  avg # of iterations =  3.4

     total cpu time spent up to now is        3.6 secs

     total energy              =     -38.40536855 Ry
     estimated scf accuracy    <       0.00455899 Ry

     iteration #  2     ecut=    60.00 Ry     beta= 0.70
     Davidson diagonalization with overlap
     ethr =  1.52E-04,  avg # of iterations =  1.4

     total cpu time spent up to now is        4.4 secs

     total energy              =     -38.40552047 Ry
     estimated scf accuracy    <       0.00015705 Ry

     iteration #  3     ecut=    60.00 Ry     beta= 0.70
     Davidson diagonalization with overlap
     ethr =  5.23E-06,  avg # of iterations =  5.6

     total cpu time spent up to now is        5.3 secs

     End of self-consistent calculation

          k = 0.0000 0.0000 0.0000 (  2085 PWs)   bands (ev):

    -5.1410   7.4248   7.4248   7.4248  10.2068  10.2069

          k =-0.1667 0.1667-0.1667 (  2088 PWs)   bands (ev):

    -4.7404   4.9246   7.0090   7.0090   9.7157  10.8382

          k =-0.3333 0.3333-0.3333 (  2090 PWs)   bands (ev):

    -3.5781   1.6341   6.5446   6.5448   9.1527  10.1352

          k = 0.5000-0.5000 0.5000 (  2060 PWs)   bands (ev):

    -2.3033  -0.3901   6.3997   6.3997   8.9966   9.6241

          k = 0.0000 0.3333 0.0000 (  2061 PWs)   bands (ev):

    -4.6063   5.8421   6.0654   6.0654   8.4303  10.0824

          k =-0.1667 0.5000-0.1667 (  2078 PWs)   bands (ev):

    -3.6912   2.9210   5.3582   5.4891   8.2014   9.8462

          k = 0.6667-0.3333 0.6667 (  2078 PWs)   bands (ev):

    -2.2263   0.2813   4.4144   5.5432   7.9854  11.0635

          k = 0.5000-0.1667 0.5000 (  2082 PWs)   bands (ev):

    -2.7254   1.0300   3.9582   6.1876   8.7308  10.7866

          k = 0.3333 0.0000 0.3333 (  2083 PWs)   bands (ev):

    -4.0819   3.8019   4.4164   7.0764  10.2210  10.6888

          k = 0.0000 0.6667 0.0000 (  2080 PWs)   bands (ev):

    -3.0387   2.9371   4.6999   4.7000   6.8337   7.0244

          k = 0.8333-0.1667 0.8333 (  2092 PWs)   bands (ev):

    -1.7451   1.3273   2.7122   4.5705   6.6490   8.8147

          k = 0.6667-0.0000 0.6667 (  2079 PWs)   bands (ev):

    -1.4131   1.2504   1.3845   5.1257   7.2773  12.0508

          k = 0.0000-1.0000 0.0000 (  2100 PWs)   bands (ev):

    -1.0831   0.3327   4.2195   4.2195   6.1294   6.2861

          k = 0.6667-0.3333 1.0000 (  2092 PWs)   bands (ev):

    -2.5675   2.1584   2.9211   4.5371   9.1755   9.5958

          k = 0.5000-0.1667 0.8333 (  2088 PWs)   bands (ev):

    -1.3858   0.6278   2.5896   3.8130   9.2617  10.3932

          k =-0.3333-1.0000 0.0000 (  2090 PWs)   bands (ev):

    -0.8837   0.8597   2.4061   2.8080   8.7004   9.1089

     the Fermi energy is     1.2857 ev

!    total energy              =     -38.40555110 Ry

     total all-electron energy =      -484.583246 Ry
     estimated scf accuracy    <       0.00000081 Ry
     smearing contrib. (-TS)   =      -0.00050075 Ry
     internal energy E=F+TS    =     -38.40505035 Ry

     The total energy is F=E-TS. E is the sum of the following terms:
     one-electron contribution =       1.48470510 Ry
     hartree contribution      =       0.08174951 Ry
     xc contribution           =      -2.24915851 Ry
     ewald contribution        =      -4.04546654 Ry
     one-center paw contrib.   =     -33.67687991 Ry

     convergence has been achieved in   3 iterations

     Writing output data file ./temp/Al.save/

     init_run     :      1.04s CPU      1.08s WALL (       1 calls)
     electrons    :      3.40s CPU      3.41s WALL (       1 calls)

     Called by init_run:
     wfcinit      :      0.20s CPU      0.22s WALL (       1 calls)
     potinit      :      0.28s CPU      0.29s WALL (       1 calls)
     hinit0       :      0.49s CPU      0.49s WALL (       1 calls)

     Called by electrons:
     c_bands      :      1.94s CPU      1.95s WALL (       4 calls)
     sum_band     :      0.52s CPU      0.48s WALL (       4 calls)
     v_of_rho     :      0.11s CPU      0.12s WALL (       4 calls)
     newd         :      0.17s CPU      0.20s WALL (       4 calls)
     PAW_pot      :      0.97s CPU      0.99s WALL (       4 calls)
     mix_rho      :      0.01s CPU      0.01s WALL (       4 calls)

     Called by c_bands:
     init_us_2    :      0.11s CPU      0.12s WALL (     144 calls)
     cegterg      :      1.70s CPU      1.70s WALL (      64 calls)

     Called by *egterg:
     cdiaghg      :      0.02s CPU      0.02s WALL (     309 calls)
     h_psi        :      1.54s CPU      1.60s WALL (     341 calls)
     s_psi        :      0.07s CPU      0.05s WALL (     341 calls)
     g_psi        :      0.03s CPU      0.03s WALL (     261 calls)

     Called by h_psi:
     h_psi:calbec :      0.05s CPU      0.06s WALL (     341 calls)
     vloc_psi     :      1.42s CPU      1.48s WALL (     341 calls)
     add_vuspsi   :      0.06s CPU      0.05s WALL (     341 calls)

     General routines
     calbec       :      0.07s CPU      0.07s WALL (     405 calls)
     fft          :      0.04s CPU      0.05s WALL (      45 calls)
     ffts         :      0.00s CPU      0.00s WALL (       4 calls)
     fftw         :      1.44s CPU      1.49s WALL (    2860 calls)

     Parallel routines

     PWSCF        :      5.29s CPU      5.39s WALL


   This run was terminated on:  12:48:10   2Apr2025            

=------------------------------------------------------------------------------=
   JOB DONE.
=------------------------------------------------------------------------------=
