
     Program PWSCF v.6.6 starts on  2Apr2025 at 12:48:11 

     This program is part of the open-source Quantum ESPRESSO suite
     for quantum simulation of materials; please cite
         "P. Giannozzi et al., J. Phys.:Condens. Matter 21 395502 (2009);
         "P. Giannozzi et al., J. Phys.:Condens. Matter 29 465901 (2017);
          URL http://www.quantum-espresso.org", 
     in publications or presentations arising from this work. More details at
     http://www.quantum-espresso.org/quote

     Parallel version (MPI), running on     1 processors

     MPI processes distributed on     1 nodes
     Fft bands division:     nmany     =       1
     Reading input from Al.scf.60.888.in

     Current dimensions of program PWSCF are:
     Max number of different atomic species (ntypx) = 10
     Max number of k-points (npk) =  40000
     Max angular momentum in pseudopotentials (lmaxx) =  3
     file Al.pbesol-n-kjpaw_psl.1.0.0.UPF: wavefunction(s)  3S 3P renormalized

     Subspace diagonalization in iterative solution of the eigenvalue problem:
     a serial algorithm will be used


     G-vector sticks info
     --------------------
     sticks:   dense  smooth     PW     G-vecs:    dense   smooth      PW
     Sum         859     859    253                16625    16625    2733



     bravais-lattice index     =            2
     lattice parameter (alat)  =      10.2000  a.u.
     unit-cell volume          =     265.3020 (a.u.)^3
     number of atoms/cell      =            1
     number of atomic types    =            1
     number of electrons       =         3.00
     number of Kohn-Sham states=            6
     kinetic-energy cutoff     =      60.0000  Ry
     charge density cutoff     =     240.0000  Ry
     convergence threshold     =      1.0E-06
     mixing beta               =       0.7000
     number of iterations used =            8  plain     mixing
     Exchange-correlation= SLA PW PSX PSC
                           (   1   4  10   8   0   0   0)

     celldm(1)=  10.200000  celldm(2)=   0.000000  celldm(3)=   0.000000
     celldm(4)=   0.000000  celldm(5)=   0.000000  celldm(6)=   0.000000

     crystal axes: (cart. coord. in units of alat)
               a(1) = (  -0.500000   0.000000   0.500000 )  
               a(2) = (   0.000000   0.500000   0.500000 )  
               a(3) = (  -0.500000   0.500000   0.000000 )  

     reciprocal axes: (cart. coord. in units 2 pi/alat)
               b(1) = ( -1.000000 -1.000000  1.000000 )  
               b(2) = (  1.000000  1.000000  1.000000 )  
               b(3) = ( -1.000000  1.000000 -1.000000 )  


     PseudoPot. # 1 for Al read from file:
     ../pseudo/Al.pbesol-n-kjpaw_psl.1.0.0.UPF
     MD5 check sum: fed048700f41f568201cacb08e201ac8
     Pseudo is Projector augmented-wave + core cor, Zval =  3.0
     Generated using "atomic" code by A. Dal Corso v.6.3
     Shape of augmentation charge: PSQ
     Using radial grid of 1135 points,  6 beta functions with: 
                l(1) =   0
                l(2) =   0
                l(3) =   1
                l(4) =   1
                l(5) =   2
                l(6) =   2
     Q(r) pseudized with 0 coefficients 


     atomic species   valence    mass     pseudopotential
        Al             3.00    26.98000     Al( 1.00)

     48 Sym. Ops., with inversion, found



   Cartesian axes

     site n.     atom                  positions (alat units)
         1           Al  tau(   1) = (   0.0000000   0.0000000   0.0000000  )

     number of k points=    29  Marzari-Vanderbilt smearing, width (Ry)=  0.0200
                       cart. coord. in units 2pi/alat
        k(    1) = (   0.0000000   0.0000000   0.0000000), wk =   0.0039062
        k(    2) = (  -0.1250000   0.1250000  -0.1250000), wk =   0.0312500
        k(    3) = (  -0.2500000   0.2500000  -0.2500000), wk =   0.0312500
        k(    4) = (  -0.3750000   0.3750000  -0.3750000), wk =   0.0312500
        k(    5) = (   0.5000000  -0.5000000   0.5000000), wk =   0.0156250
        k(    6) = (   0.0000000   0.2500000   0.0000000), wk =   0.0234375
        k(    7) = (  -0.1250000   0.3750000  -0.1250000), wk =   0.0937500
        k(    8) = (  -0.2500000   0.5000000  -0.2500000), wk =   0.0937500
        k(    9) = (   0.6250000  -0.3750000   0.6250000), wk =   0.0937500
        k(   10) = (   0.5000000  -0.2500000   0.5000000), wk =   0.0937500
        k(   11) = (   0.3750000  -0.1250000   0.3750000), wk =   0.0937500
        k(   12) = (   0.2500000   0.0000000   0.2500000), wk =   0.0468750
        k(   13) = (   0.0000000   0.5000000   0.0000000), wk =   0.0234375
        k(   14) = (  -0.1250000   0.6250000  -0.1250000), wk =   0.0937500
        k(   15) = (   0.7500000  -0.2500000   0.7500000), wk =   0.0937500
        k(   16) = (   0.6250000  -0.1250000   0.6250000), wk =   0.0937500
        k(   17) = (   0.5000000   0.0000000   0.5000000), wk =   0.0468750
        k(   18) = (   0.0000000   0.7500000   0.0000000), wk =   0.0234375
        k(   19) = (   0.8750000  -0.1250000   0.8750000), wk =   0.0937500
        k(   20) = (   0.7500000   0.0000000   0.7500000), wk =   0.0468750
        k(   21) = (   0.0000000  -1.0000000   0.0000000), wk =   0.0117188
        k(   22) = (  -0.2500000   0.5000000   0.0000000), wk =   0.0937500
        k(   23) = (   0.6250000  -0.3750000   0.8750000), wk =   0.1875000
        k(   24) = (   0.5000000  -0.2500000   0.7500000), wk =   0.0937500
        k(   25) = (   0.7500000  -0.2500000   1.0000000), wk =   0.0937500
        k(   26) = (   0.6250000  -0.1250000   0.8750000), wk =   0.1875000
        k(   27) = (   0.5000000   0.0000000   0.7500000), wk =   0.0937500
        k(   28) = (  -0.2500000  -1.0000000   0.0000000), wk =   0.0468750
        k(   29) = (  -0.5000000  -1.0000000   0.0000000), wk =   0.0234375

     Dense  grid:    16625 G-vectors     FFT dimensions: (  36,  36,  36)

     Estimated max dynamical RAM per process >      65.09 MB

     Initial potential from superposition of free atoms

     starting charge    2.99781, renormalised to    3.00000
     Starting wfcs are    4 randomized atomic wfcs +    2 random wfcs
     Checking if some PAW data can be deallocated... 

     total cpu time spent up to now is        1.9 secs

     Self-consistent Calculation

     iteration #  1     ecut=    60.00 Ry     beta= 0.70
     Davidson diagonalization with overlap
     ethr =  1.00E-02,  avg # of iterations =  5.7

     Threshold (ethr) on eigenvalues was too large:
     Diagonalizing with lowered threshold

     Davidson diagonalization with overlap
     ethr =  1.53E-04,  avg # of iterations =  3.7

     total cpu time spent up to now is        4.5 secs

     total energy              =     -38.40471432 Ry
     estimated scf accuracy    <       0.00422088 Ry

     iteration #  2     ecut=    60.00 Ry     beta= 0.70
     Davidson diagonalization with overlap
     ethr =  1.41E-04,  avg # of iterations =  1.1

     total cpu time spent up to now is        5.6 secs

     total energy              =     -38.40484900 Ry
     estimated scf accuracy    <       0.00015320 Ry

     iteration #  3     ecut=    60.00 Ry     beta= 0.70
     Davidson diagonalization with overlap
     ethr =  5.11E-06,  avg # of iterations =  5.9

     total cpu time spent up to now is        7.1 secs

     End of self-consistent calculation

          k = 0.0000 0.0000 0.0000 (  2085 PWs)   bands (ev):

    -5.1354   7.4331   7.4331   7.4331  10.2106  10.2106

          k =-0.1250 0.1250-0.1250 (  2079 PWs)   bands (ev):

    -4.9095   5.7827   7.1635   7.1635   9.9101  10.6733

          k =-0.2500 0.2500-0.2500 (  2067 PWs)   bands (ev):

    -4.2413   3.2231   6.7469   6.7469   9.3848  10.6453

          k =-0.3750 0.3750-0.3750 (  2072 PWs)   bands (ev):

    -3.1873   0.9285   6.4868   6.4870   9.0857   9.9242

          k = 0.5000-0.5000 0.5000 (  2060 PWs)   bands (ev):

    -2.2963  -0.3858   6.4072   6.4072   9.0022   9.6279

          k = 0.0000 0.2500 0.0000 (  2077 PWs)   bands (ev):

    -4.8340   6.4382   6.5078   6.5078   8.9651  11.1297

          k =-0.1250 0.3750-0.1250 (  2065 PWs)   bands (ev):

    -4.3121   4.1824   5.9642   6.2523   8.9210  10.1453

          k =-0.2500 0.5000-0.2500 (  2072 PWs)   bands (ev):

    -3.3764   1.8073   5.6148   5.7328   8.5293  10.5412

          k = 0.6250-0.3750 0.6250 (  2080 PWs)   bands (ev):

    -2.2632   0.0060   5.0629   5.8445   8.4442  10.4809

          k = 0.5000-0.2500 0.5000 (  2083 PWs)   bands (ev):

    -2.6052   0.4892   4.7548   6.2593   8.9166  10.3552

          k = 0.3750-0.1250 0.3750 (  2078 PWs)   bands (ev):

    -3.7309   2.5709   4.7907   6.8551   9.8369  10.4497

          k = 0.2500 0.0000 0.2500 (  2067 PWs)   bands (ev):

    -4.5355   4.8351   5.4021   7.3351  10.3078  10.8563

          k = 0.0000 0.5000 0.0000 (  2045 PWs)   bands (ev):

    -3.9394   4.4935   5.2923   5.2923   7.5121   8.2721

          k =-0.1250 0.6250-0.1250 (  2079 PWs)   bands (ev):

    -3.1434   2.8130   4.2609   4.9558   7.2978   8.5922

          k = 0.7500-0.2500 0.7500 (  2081 PWs)   bands (ev):

    -2.0446   0.9747   3.2305   5.0002   7.2138  10.5970

          k = 0.6250-0.1250 0.6250 (  2088 PWs)   bands (ev):

    -1.7433   0.5866   2.6224   5.4170   7.6580  12.1001

          k = 0.5000 0.0000 0.5000 (  2085 PWs)   bands (ev):

    -2.8178   2.1117   2.6819   6.1347   8.5853  11.6762

          k = 0.0000 0.7500 0.0000 (  2084 PWs)   bands (ev):

    -2.4985   2.1416   4.4969   4.4969   6.5969   6.6257

          k = 0.8750-0.1250 0.8750 (  2089 PWs)   bands (ev):

    -1.5420   1.0737   3.0329   4.4241   6.4566   7.9516

          k = 0.7500 0.0000 0.7500 (  2085 PWs)   bands (ev):

    -1.0283   0.9300   1.5300   4.7437   6.8133  10.4059

          k = 0.0000-1.0000 0.0000 (  2100 PWs)   bands (ev):

    -1.0749   0.3367   4.2254   4.2254   6.1355   6.2883

          k =-0.2500 0.5000 0.0000 (  2074 PWs)   bands (ev):

    -3.6524   3.3737   4.0701   5.9155   9.2667   9.3445

          k = 0.6250-0.3750 0.8750 (  2080 PWs)   bands (ev):

    -2.6171   1.4442   3.5988   5.1174   9.0165  10.2122

          k = 0.5000-0.2500 0.7500 (  2092 PWs)   bands (ev):

    -1.7574   0.1941   3.5824   4.7428   8.9933   9.9602

          k = 0.7500-0.2500 1.0000 (  2085 PWs)   bands (ev):

    -2.2471   1.9906   3.2209   3.8678   8.2024   8.4355

          k = 0.6250-0.1250 0.8750 (  2092 PWs)   bands (ev):

    -1.2543   0.9910   2.1594   3.6224   8.4526  10.5204

          k = 0.5000 0.0000 0.7500 (  2091 PWs)   bands (ev):

    -1.5903   1.3985   1.8103   4.1565   8.9774  11.3879

          k =-0.2500-1.0000 0.0000 (  2098 PWs)   bands (ev):

    -0.9471   0.6337   2.9334   3.1634   7.8559   8.1502

          k =-0.5000-1.0000 0.0000 (  2120 PWs)   bands (ev):

    -0.7960   1.5164   1.5164   2.5038   9.9243  11.2453

     the Fermi energy is     1.3381 ev

!    total energy              =     -38.40487688 Ry

     total all-electron energy =      -484.582571 Ry
     estimated scf accuracy    <       0.00000078 Ry
     smearing contrib. (-TS)   =       0.00048151 Ry
     internal energy E=F+TS    =     -38.40535839 Ry

     The total energy is F=E-TS. E is the sum of the following terms:
     one-electron contribution =       1.48483428 Ry
     hartree contribution      =       0.08327983 Ry
     xc contribution           =      -2.25045558 Ry
     ewald contribution        =      -4.04546654 Ry
     one-center paw contrib.   =     -33.67755038 Ry

     convergence has been achieved in   3 iterations

     Writing output data file ./temp/Al.save/

     init_run     :      1.09s CPU      1.12s WALL (       1 calls)
     electrons    :      5.21s CPU      5.16s WALL (       1 calls)

     Called by init_run:
     wfcinit      :      0.26s CPU      0.26s WALL (       1 calls)
     potinit      :      0.28s CPU      0.29s WALL (       1 calls)
     hinit0       :      0.48s CPU      0.49s WALL (       1 calls)

     Called by electrons:
     c_bands      :      3.48s CPU      3.42s WALL (       4 calls)
     sum_band     :      0.78s CPU      0.75s WALL (       4 calls)
     v_of_rho     :      0.11s CPU      0.12s WALL (       4 calls)
     newd         :      0.16s CPU      0.19s WALL (       4 calls)
     PAW_pot      :      0.97s CPU      0.99s WALL (       4 calls)
     mix_rho      :      0.01s CPU      0.01s WALL (       4 calls)

     Called by c_bands:
     init_us_2    :      0.21s CPU      0.21s WALL (     261 calls)
     cegterg      :      3.04s CPU      2.97s WALL (     116 calls)

     Called by *egterg:
     cdiaghg      :      0.04s CPU      0.04s WALL (     560 calls)
     h_psi        :      2.68s CPU      2.69s WALL (     618 calls)
     s_psi        :      0.12s CPU      0.09s WALL (     618 calls)
     g_psi        :      0.05s CPU      0.05s WALL (     473 calls)

     Called by h_psi:
     h_psi:calbec :      0.09s CPU      0.09s WALL (     618 calls)
     vloc_psi     :      2.47s CPU      2.49s WALL (     618 calls)
     add_vuspsi   :      0.11s CPU      0.09s WALL (     618 calls)

     General routines
     calbec       :      0.11s CPU      0.11s WALL (     734 calls)
     fft          :      0.04s CPU      0.04s WALL (      45 calls)
     ffts         :      0.00s CPU      0.00s WALL (       4 calls)
     fftw         :      2.55s CPU      2.57s WALL (    5226 calls)

     Parallel routines

     PWSCF        :      7.13s CPU      7.17s WALL


   This run was terminated on:  12:48:18   2Apr2025            

=------------------------------------------------------------------------------=
   JOB DONE.
=------------------------------------------------------------------------------=
