
     Program PWSCF v.6.6 starts on 25Mar2025 at  0:33:49 

     This program is part of the open-source Quantum ESPRESSO suite
     for quantum simulation of materials; please cite
         "P. Giannozzi et al., J. Phys.:Condens. Matter 21 395502 (2009);
         "P. Giannozzi et al., J. Phys.:Condens. Matter 29 465901 (2017);
          URL http://www.quantum-espresso.org", 
     in publications or presentations arising from this work. More details at
     http://www.quantum-espresso.org/quote

     Parallel version (MPI), running on     1 processors

     MPI processes distributed on     1 nodes
     Fft bands division:     nmany     =       1
     Reading input from Al.scf.40.888.in

     Current dimensions of program PWSCF are:
     Max number of different atomic species (ntypx) = 10
     Max number of k-points (npk) =  40000
     Max angular momentum in pseudopotentials (lmaxx) =  3
     file Al.pbesol-n-kjpaw_psl.1.0.0.UPF: wavefunction(s)  3S 3P renormalized

     Subspace diagonalization in iterative solution of the eigenvalue problem:
     a serial algorithm will be used


     G-vector sticks info
     --------------------
     sticks:   dense  smooth     PW     G-vecs:    dense   smooth      PW
     Sum         583     583    187                 9185     9185    1639



     bravais-lattice index     =            2
     lattice parameter (alat)  =      10.2000  a.u.
     unit-cell volume          =     265.3020 (a.u.)^3
     number of atoms/cell      =            1
     number of atomic types    =            1
     number of electrons       =         3.00
     number of Kohn-Sham states=            6
     kinetic-energy cutoff     =      40.0000  Ry
     charge density cutoff     =     160.0000  Ry
     convergence threshold     =      1.0E-06
     mixing beta               =       0.7000
     number of iterations used =            8  plain     mixing
     Exchange-correlation= SLA PW PSX PSC
                           (   1   4  10   8   0   0   0)

     celldm(1)=  10.200000  celldm(2)=   0.000000  celldm(3)=   0.000000
     celldm(4)=   0.000000  celldm(5)=   0.000000  celldm(6)=   0.000000

     crystal axes: (cart. coord. in units of alat)
               a(1) = (  -0.500000   0.000000   0.500000 )  
               a(2) = (   0.000000   0.500000   0.500000 )  
               a(3) = (  -0.500000   0.500000   0.000000 )  

     reciprocal axes: (cart. coord. in units 2 pi/alat)
               b(1) = ( -1.000000 -1.000000  1.000000 )  
               b(2) = (  1.000000  1.000000  1.000000 )  
               b(3) = ( -1.000000  1.000000 -1.000000 )  


     PseudoPot. # 1 for Al read from file:
     ../pseudo/Al.pbesol-n-kjpaw_psl.1.0.0.UPF
     MD5 check sum: fed048700f41f568201cacb08e201ac8
     Pseudo is Projector augmented-wave + core cor, Zval =  3.0
     Generated using "atomic" code by A. Dal Corso v.6.3
     Shape of augmentation charge: PSQ
     Using radial grid of 1135 points,  6 beta functions with: 
                l(1) =   0
                l(2) =   0
                l(3) =   1
                l(4) =   1
                l(5) =   2
                l(6) =   2
     Q(r) pseudized with 0 coefficients 


     atomic species   valence    mass     pseudopotential
        Al             3.00    26.98000     Al( 1.00)

     48 Sym. Ops., with inversion, found



   Cartesian axes

     site n.     atom                  positions (alat units)
         1           Al  tau(   1) = (   0.0000000   0.0000000   0.0000000  )

     number of k points=    29  Marzari-Vanderbilt smearing, width (Ry)=  0.0200
                       cart. coord. in units 2pi/alat
        k(    1) = (   0.0000000   0.0000000   0.0000000), wk =   0.0039062
        k(    2) = (  -0.1250000   0.1250000  -0.1250000), wk =   0.0312500
        k(    3) = (  -0.2500000   0.2500000  -0.2500000), wk =   0.0312500
        k(    4) = (  -0.3750000   0.3750000  -0.3750000), wk =   0.0312500
        k(    5) = (   0.5000000  -0.5000000   0.5000000), wk =   0.0156250
        k(    6) = (   0.0000000   0.2500000   0.0000000), wk =   0.0234375
        k(    7) = (  -0.1250000   0.3750000  -0.1250000), wk =   0.0937500
        k(    8) = (  -0.2500000   0.5000000  -0.2500000), wk =   0.0937500
        k(    9) = (   0.6250000  -0.3750000   0.6250000), wk =   0.0937500
        k(   10) = (   0.5000000  -0.2500000   0.5000000), wk =   0.0937500
        k(   11) = (   0.3750000  -0.1250000   0.3750000), wk =   0.0937500
        k(   12) = (   0.2500000   0.0000000   0.2500000), wk =   0.0468750
        k(   13) = (   0.0000000   0.5000000   0.0000000), wk =   0.0234375
        k(   14) = (  -0.1250000   0.6250000  -0.1250000), wk =   0.0937500
        k(   15) = (   0.7500000  -0.2500000   0.7500000), wk =   0.0937500
        k(   16) = (   0.6250000  -0.1250000   0.6250000), wk =   0.0937500
        k(   17) = (   0.5000000   0.0000000   0.5000000), wk =   0.0468750
        k(   18) = (   0.0000000   0.7500000   0.0000000), wk =   0.0234375
        k(   19) = (   0.8750000  -0.1250000   0.8750000), wk =   0.0937500
        k(   20) = (   0.7500000   0.0000000   0.7500000), wk =   0.0468750
        k(   21) = (   0.0000000  -1.0000000   0.0000000), wk =   0.0117188
        k(   22) = (  -0.2500000   0.5000000   0.0000000), wk =   0.0937500
        k(   23) = (   0.6250000  -0.3750000   0.8750000), wk =   0.1875000
        k(   24) = (   0.5000000  -0.2500000   0.7500000), wk =   0.0937500
        k(   25) = (   0.7500000  -0.2500000   1.0000000), wk =   0.0937500
        k(   26) = (   0.6250000  -0.1250000   0.8750000), wk =   0.1875000
        k(   27) = (   0.5000000   0.0000000   0.7500000), wk =   0.0937500
        k(   28) = (  -0.2500000  -1.0000000   0.0000000), wk =   0.0468750
        k(   29) = (  -0.5000000  -1.0000000   0.0000000), wk =   0.0234375

     Dense  grid:     9185 G-vectors     FFT dimensions: (  30,  30,  30)

     Estimated max dynamical RAM per process >      36.32 MB

     Initial potential from superposition of free atoms

     starting charge    2.99781, renormalised to    3.00000
     Starting wfcs are    4 randomized atomic wfcs +    2 random wfcs
     Checking if some PAW data can be deallocated... 

     total cpu time spent up to now is        1.9 secs

     Self-consistent Calculation

     iteration #  1     ecut=    40.00 Ry     beta= 0.70
     Davidson diagonalization with overlap
     ethr =  1.00E-02,  avg # of iterations =  5.7

     Threshold (ethr) on eigenvalues was too large:
     Diagonalizing with lowered threshold

     Davidson diagonalization with overlap
     ethr =  1.50E-04,  avg # of iterations =  3.9

     total cpu time spent up to now is        4.2 secs

     total energy              =     -38.40470801 Ry
     estimated scf accuracy    <       0.00421741 Ry

     iteration #  2     ecut=    40.00 Ry     beta= 0.70
     Davidson diagonalization with overlap
     ethr =  1.41E-04,  avg # of iterations =  1.0

     total cpu time spent up to now is        5.2 secs

     total energy              =     -38.40483839 Ry
     estimated scf accuracy    <       0.00015486 Ry

     iteration #  3     ecut=    40.00 Ry     beta= 0.70
     Davidson diagonalization with overlap
     c_bands:  1 eigenvalues not converged
     c_bands:  1 eigenvalues not converged
     ethr =  5.16E-06,  avg # of iterations =  6.6

     total cpu time spent up to now is        6.5 secs

     End of self-consistent calculation

          k = 0.0000 0.0000 0.0000 (  1139 PWs)   bands (ev):

    -5.1355   7.4330   7.4330   7.4330  10.2107  10.2107

          k =-0.1250 0.1250-0.1250 (  1137 PWs)   bands (ev):

    -4.9095   5.7826   7.1634   7.1634   9.9103  10.6733

          k =-0.2500 0.2500-0.2500 (  1131 PWs)   bands (ev):

    -4.2413   3.2230   6.7468   6.7468   9.3852  10.6453

          k =-0.3750 0.3750-0.3750 (  1143 PWs)   bands (ev):

    -3.1873   0.9284   6.4866   6.4867   9.0857   9.9243

          k = 0.5000-0.5000 0.5000 (  1158 PWs)   bands (ev):

    -2.2964  -0.3859   6.4071   6.4071   9.0019   9.6280

          k = 0.0000 0.2500 0.0000 (  1151 PWs)   bands (ev):

    -4.8341   6.4381   6.5078   6.5078   8.9652  11.1284

          k =-0.1250 0.3750-0.1250 (  1130 PWs)   bands (ev):

    -4.3122   4.1824   5.9641   6.2522   8.9210  10.1448

          k =-0.2500 0.5000-0.2500 (  1141 PWs)   bands (ev):

    -3.3765   1.8073   5.6147   5.7327   8.5294  10.5412

          k = 0.6250-0.3750 0.6250 (  1133 PWs)   bands (ev):

    -2.2633   0.0059   5.0628   5.8444   8.4441  10.4762

          k = 0.5000-0.2500 0.5000 (  1131 PWs)   bands (ev):

    -2.6053   0.4892   4.7548   6.2592   8.9166  10.3275

          k = 0.3750-0.1250 0.3750 (  1130 PWs)   bands (ev):

    -3.7310   2.5708   4.7906   6.8550   9.8371  10.4487

          k = 0.2500 0.0000 0.2500 (  1151 PWs)   bands (ev):

    -4.5356   4.8350   5.4021   7.3351  10.3073  10.8567

          k = 0.0000 0.5000 0.0000 (  1118 PWs)   bands (ev):

    -3.9395   4.4935   5.2922   5.2923   7.5123   8.2723

          k =-0.1250 0.6250-0.1250 (  1128 PWs)   bands (ev):

    -3.1435   2.8129   4.2608   4.9557   7.2980   8.5921

          k = 0.7500-0.2500 0.7500 (  1128 PWs)   bands (ev):

    -2.0447   0.9747   3.2305   5.0002   7.2139  10.5974

          k = 0.6250-0.1250 0.6250 (  1137 PWs)   bands (ev):

    -1.7434   0.5865   2.6223   5.4169   7.6581  12.1040

          k = 0.5000 0.0000 0.5000 (  1125 PWs)   bands (ev):

    -2.8179   2.1116   2.6819   6.1346   8.5853  11.6852

          k = 0.0000 0.7500 0.0000 (  1126 PWs)   bands (ev):

    -2.4986   2.1415   4.4968   4.4968   6.5969   6.6257

          k = 0.8750-0.1250 0.8750 (  1135 PWs)   bands (ev):

    -1.5421   1.0736   3.0329   4.4240   6.4565   7.9517

          k = 0.7500 0.0000 0.7500 (  1136 PWs)   bands (ev):

    -1.0284   0.9299   1.5300   4.7436   6.8134  10.4060

          k = 0.0000-1.0000 0.0000 (  1138 PWs)   bands (ev):

    -1.0750   0.3367   4.2254   4.2254   6.1356   6.2884

          k =-0.2500 0.5000 0.0000 (  1131 PWs)   bands (ev):

    -3.6525   3.3736   4.0700   5.9155   9.2667   9.3445

          k = 0.6250-0.3750 0.8750 (  1136 PWs)   bands (ev):

    -2.6171   1.4441   3.5988   5.1174   9.0168  10.2124

          k = 0.5000-0.2500 0.7500 (  1128 PWs)   bands (ev):

    -1.7574   0.1941   3.5823   4.7427   8.9934   9.9602

          k = 0.7500-0.2500 1.0000 (  1129 PWs)   bands (ev):

    -2.2472   1.9905   3.2209   3.8678   8.2025   8.4355

          k = 0.6250-0.1250 0.8750 (  1133 PWs)   bands (ev):

    -1.2544   0.9909   2.1594   3.6223   8.4525  10.5204

          k = 0.5000 0.0000 0.7500 (  1138 PWs)   bands (ev):

    -1.5904   1.3984   1.8102   4.1564   8.9775  11.3903

          k =-0.2500-1.0000 0.0000 (  1134 PWs)   bands (ev):

    -0.9472   0.6336   2.9333   3.1634   7.8558   8.1504

          k =-0.5000-1.0000 0.0000 (  1144 PWs)   bands (ev):

    -0.7961   1.5163   1.5163   2.5037   9.9244  11.2454

     the Fermi energy is     1.3381 ev

!    total energy              =     -38.40486731 Ry

     total all-electron energy =      -484.582562 Ry
     estimated scf accuracy    <       0.00000088 Ry
     smearing contrib. (-TS)   =       0.00048155 Ry
     internal energy E=F+TS    =     -38.40534887 Ry

     The total energy is F=E-TS. E is the sum of the following terms:
     one-electron contribution =       1.48486828 Ry
     hartree contribution      =       0.08328881 Ry
     xc contribution           =      -2.25046643 Ry
     ewald contribution        =      -4.04546658 Ry
     one-center paw contrib.   =     -33.67757294 Ry

     convergence has been achieved in   3 iterations

     Writing output data file ./temp/Al.save/

     init_run     :      0.95s CPU      0.99s WALL (       1 calls)
     electrons    :      4.58s CPU      4.66s WALL (       1 calls)

     Called by init_run:
     wfcinit      :      0.24s CPU      0.25s WALL (       1 calls)
     potinit      :      0.28s CPU      0.29s WALL (       1 calls)
     hinit0       :      0.39s CPU      0.40s WALL (       1 calls)

     Called by electrons:
     c_bands      :      3.05s CPU      3.09s WALL (       4 calls)
     sum_band     :      0.63s CPU      0.61s WALL (       4 calls)
     v_of_rho     :      0.08s CPU      0.09s WALL (       4 calls)
     newd         :      0.10s CPU      0.12s WALL (       4 calls)
     PAW_pot      :      1.01s CPU      1.05s WALL (       4 calls)
     mix_rho      :      0.00s CPU      0.01s WALL (       4 calls)

     Called by c_bands:
     init_us_2    :      0.12s CPU      0.12s WALL (     261 calls)
     cegterg      :      2.81s CPU      2.83s WALL (     116 calls)

     Called by *egterg:
     cdiaghg      :      0.05s CPU      0.05s WALL (     584 calls)
     h_psi        :      2.64s CPU      2.70s WALL (     642 calls)
     s_psi        :      0.08s CPU      0.06s WALL (     642 calls)
     g_psi        :      0.02s CPU      0.03s WALL (     497 calls)

     Called by h_psi:
     h_psi:calbec :      0.07s CPU      0.07s WALL (     642 calls)
     vloc_psi     :      2.48s CPU      2.54s WALL (     642 calls)
     add_vuspsi   :      0.08s CPU      0.07s WALL (     642 calls)

     General routines
     calbec       :      0.08s CPU      0.09s WALL (     758 calls)
     fft          :      0.05s CPU      0.05s WALL (      45 calls)
     ffts         :      0.01s CPU      0.01s WALL (       4 calls)
     fftw         :      2.65s CPU      2.72s WALL (    5214 calls)

     Parallel routines

     PWSCF        :      6.41s CPU      6.59s WALL


   This run was terminated on:   0:33:55  25Mar2025            

=------------------------------------------------------------------------------=
   JOB DONE.
=------------------------------------------------------------------------------=
