
     Program PWSCF v.6.6 starts on  2Apr2025 at 12:54:12 

     This program is part of the open-source Quantum ESPRESSO suite
     for quantum simulation of materials; please cite
         "P. Giannozzi et al., J. Phys.:Condens. Matter 21 395502 (2009);
         "P. Giannozzi et al., J. Phys.:Condens. Matter 29 465901 (2017);
          URL http://www.quantum-espresso.org", 
     in publications or presentations arising from this work. More details at
     http://www.quantum-espresso.org/quote

     Parallel version (MPI), running on     1 processors

     MPI processes distributed on     1 nodes
     Fft bands division:     nmany     =       1
     Reading input from Al.scf.100.888.in

     Current dimensions of program PWSCF are:
     Max number of different atomic species (ntypx) = 10
     Max number of k-points (npk) =  40000
     Max angular momentum in pseudopotentials (lmaxx) =  3
     file Al.pbesol-n-kjpaw_psl.1.0.0.UPF: wavefunction(s)  3S 3P renormalized

     Subspace diagonalization in iterative solution of the eigenvalue problem:
     a serial algorithm will be used


     G-vector sticks info
     --------------------
     sticks:   dense  smooth     PW     G-vecs:    dense   smooth      PW
     Sum        1417    1417    421                35749    35749    5601



     bravais-lattice index     =            2
     lattice parameter (alat)  =      10.2000  a.u.
     unit-cell volume          =     265.3020 (a.u.)^3
     number of atoms/cell      =            1
     number of atomic types    =            1
     number of electrons       =         3.00
     number of Kohn-Sham states=            6
     kinetic-energy cutoff     =     100.0000  Ry
     charge density cutoff     =     400.0000  Ry
     convergence threshold     =      1.0E-06
     mixing beta               =       0.7000
     number of iterations used =            8  plain     mixing
     Exchange-correlation= SLA PW PSX PSC
                           (   1   4  10   8   0   0   0)

     celldm(1)=  10.200000  celldm(2)=   0.000000  celldm(3)=   0.000000
     celldm(4)=   0.000000  celldm(5)=   0.000000  celldm(6)=   0.000000

     crystal axes: (cart. coord. in units of alat)
               a(1) = (  -0.500000   0.000000   0.500000 )  
               a(2) = (   0.000000   0.500000   0.500000 )  
               a(3) = (  -0.500000   0.500000   0.000000 )  

     reciprocal axes: (cart. coord. in units 2 pi/alat)
               b(1) = ( -1.000000 -1.000000  1.000000 )  
               b(2) = (  1.000000  1.000000  1.000000 )  
               b(3) = ( -1.000000  1.000000 -1.000000 )  


     PseudoPot. # 1 for Al read from file:
     ../pseudo/Al.pbesol-n-kjpaw_psl.1.0.0.UPF
     MD5 check sum: fed048700f41f568201cacb08e201ac8
     Pseudo is Projector augmented-wave + core cor, Zval =  3.0
     Generated using "atomic" code by A. Dal Corso v.6.3
     Shape of augmentation charge: PSQ
     Using radial grid of 1135 points,  6 beta functions with: 
                l(1) =   0
                l(2) =   0
                l(3) =   1
                l(4) =   1
                l(5) =   2
                l(6) =   2
     Q(r) pseudized with 0 coefficients 


     atomic species   valence    mass     pseudopotential
        Al             3.00    26.98000     Al( 1.00)

     48 Sym. Ops., with inversion, found



   Cartesian axes

     site n.     atom                  positions (alat units)
         1           Al  tau(   1) = (   0.0000000   0.0000000   0.0000000  )

     number of k points=    29  Marzari-Vanderbilt smearing, width (Ry)=  0.0200
                       cart. coord. in units 2pi/alat
        k(    1) = (   0.0000000   0.0000000   0.0000000), wk =   0.0039062
        k(    2) = (  -0.1250000   0.1250000  -0.1250000), wk =   0.0312500
        k(    3) = (  -0.2500000   0.2500000  -0.2500000), wk =   0.0312500
        k(    4) = (  -0.3750000   0.3750000  -0.3750000), wk =   0.0312500
        k(    5) = (   0.5000000  -0.5000000   0.5000000), wk =   0.0156250
        k(    6) = (   0.0000000   0.2500000   0.0000000), wk =   0.0234375
        k(    7) = (  -0.1250000   0.3750000  -0.1250000), wk =   0.0937500
        k(    8) = (  -0.2500000   0.5000000  -0.2500000), wk =   0.0937500
        k(    9) = (   0.6250000  -0.3750000   0.6250000), wk =   0.0937500
        k(   10) = (   0.5000000  -0.2500000   0.5000000), wk =   0.0937500
        k(   11) = (   0.3750000  -0.1250000   0.3750000), wk =   0.0937500
        k(   12) = (   0.2500000   0.0000000   0.2500000), wk =   0.0468750
        k(   13) = (   0.0000000   0.5000000   0.0000000), wk =   0.0234375
        k(   14) = (  -0.1250000   0.6250000  -0.1250000), wk =   0.0937500
        k(   15) = (   0.7500000  -0.2500000   0.7500000), wk =   0.0937500
        k(   16) = (   0.6250000  -0.1250000   0.6250000), wk =   0.0937500
        k(   17) = (   0.5000000   0.0000000   0.5000000), wk =   0.0468750
        k(   18) = (   0.0000000   0.7500000   0.0000000), wk =   0.0234375
        k(   19) = (   0.8750000  -0.1250000   0.8750000), wk =   0.0937500
        k(   20) = (   0.7500000   0.0000000   0.7500000), wk =   0.0468750
        k(   21) = (   0.0000000  -1.0000000   0.0000000), wk =   0.0117188
        k(   22) = (  -0.2500000   0.5000000   0.0000000), wk =   0.0937500
        k(   23) = (   0.6250000  -0.3750000   0.8750000), wk =   0.1875000
        k(   24) = (   0.5000000  -0.2500000   0.7500000), wk =   0.0937500
        k(   25) = (   0.7500000  -0.2500000   1.0000000), wk =   0.0937500
        k(   26) = (   0.6250000  -0.1250000   0.8750000), wk =   0.1875000
        k(   27) = (   0.5000000   0.0000000   0.7500000), wk =   0.0937500
        k(   28) = (  -0.2500000  -1.0000000   0.0000000), wk =   0.0468750
        k(   29) = (  -0.5000000  -1.0000000   0.0000000), wk =   0.0234375

     Dense  grid:    35749 G-vectors     FFT dimensions: (  45,  45,  45)

     Estimated max dynamical RAM per process >     138.27 MB

     Initial potential from superposition of free atoms

     starting charge    2.99781, renormalised to    3.00000
     Starting wfcs are    4 randomized atomic wfcs +    2 random wfcs
     Checking if some PAW data can be deallocated... 

     total cpu time spent up to now is        2.5 secs

     Self-consistent Calculation

     iteration #  1     ecut=   100.00 Ry     beta= 0.70
     Davidson diagonalization with overlap
     ethr =  1.00E-02,  avg # of iterations =  5.8

     Threshold (ethr) on eigenvalues was too large:
     Diagonalizing with lowered threshold

     Davidson diagonalization with overlap
     ethr =  1.52E-04,  avg # of iterations =  3.8

     total cpu time spent up to now is        8.1 secs

     total energy              =     -38.40471946 Ry
     estimated scf accuracy    <       0.00422252 Ry

     iteration #  2     ecut=   100.00 Ry     beta= 0.70
     Davidson diagonalization with overlap
     ethr =  1.41E-04,  avg # of iterations =  1.0

     total cpu time spent up to now is       10.2 secs

     total energy              =     -38.40485234 Ry
     estimated scf accuracy    <       0.00015426 Ry

     iteration #  3     ecut=   100.00 Ry     beta= 0.70
     Davidson diagonalization with overlap
     c_bands:  1 eigenvalues not converged
     ethr =  5.14E-06,  avg # of iterations =  5.2

     total cpu time spent up to now is       13.0 secs

     End of self-consistent calculation

          k = 0.0000 0.0000 0.0000 (  4477 PWs)   bands (ev):

    -5.1355   7.4330   7.4330   7.4330  10.2105  10.2106

          k =-0.1250 0.1250-0.1250 (  4489 PWs)   bands (ev):

    -4.9096   5.7826   7.1633   7.1633   9.9100  10.6732

          k =-0.2500 0.2500-0.2500 (  4501 PWs)   bands (ev):

    -4.2413   3.2230   6.7467   6.7468   9.3849  10.6451

          k =-0.3750 0.3750-0.3750 (  4488 PWs)   bands (ev):

    -3.1874   0.9284   6.4866   6.4866   9.0857   9.9242

          k = 0.5000-0.5000 0.5000 (  4476 PWs)   bands (ev):

    -2.2964  -0.3859   6.4070   6.4070   9.0018   9.6278

          k = 0.0000 0.2500 0.0000 (  4488 PWs)   bands (ev):

    -4.8341   6.4380   6.5077   6.5077   8.9650  11.1282

          k =-0.1250 0.3750-0.1250 (  4501 PWs)   bands (ev):

    -4.3122   4.1823   5.9641   6.2521   8.9209  10.1447

          k =-0.2500 0.5000-0.2500 (  4508 PWs)   bands (ev):

    -3.3765   1.8072   5.6147   5.7327   8.5293  10.5412

          k = 0.6250-0.3750 0.6250 (  4474 PWs)   bands (ev):

    -2.2634   0.0059   5.0628   5.8444   8.4440  10.4772

          k = 0.5000-0.2500 0.5000 (  4478 PWs)   bands (ev):

    -2.6053   0.4891   4.7547   6.2592   8.9171  10.3728

          k = 0.3750-0.1250 0.3750 (  4489 PWs)   bands (ev):

    -3.7310   2.5708   4.7905   6.8550   9.8367  10.4448

          k = 0.2500 0.0000 0.2500 (  4477 PWs)   bands (ev):

    -4.5356   4.8350   5.4020   7.3350  10.3075  10.8561

          k = 0.0000 0.5000 0.0000 (  4520 PWs)   bands (ev):

    -3.9395   4.4934   5.2922   5.2922   7.5124   8.2721

          k =-0.1250 0.6250-0.1250 (  4496 PWs)   bands (ev):

    -3.1436   2.8129   4.2608   4.9557   7.2978   8.5922

          k = 0.7500-0.2500 0.7500 (  4470 PWs)   bands (ev):

    -2.0447   0.9746   3.2304   5.0001   7.2137  10.5970

          k = 0.6250-0.1250 0.6250 (  4466 PWs)   bands (ev):

    -1.7434   0.5865   2.6223   5.4169   7.6581  12.1820

          k = 0.5000 0.0000 0.5000 (  4489 PWs)   bands (ev):

    -2.8179   2.1116   2.6818   6.1346   8.5852  11.6782

          k = 0.0000 0.7500 0.0000 (  4472 PWs)   bands (ev):

    -2.4986   2.1415   4.4967   4.4967   6.5969   6.6258

          k = 0.8750-0.1250 0.8750 (  4465 PWs)   bands (ev):

    -1.5421   1.0736   3.0329   4.4240   6.4564   7.9517

          k = 0.7500 0.0000 0.7500 (  4454 PWs)   bands (ev):

    -1.0284   0.9299   1.5299   4.7436   6.8133  10.4058

          k = 0.0000-1.0000 0.0000 (  4456 PWs)   bands (ev):

    -1.0751   0.3366   4.2253   4.2253   6.1354   6.2883

          k =-0.2500 0.5000 0.0000 (  4481 PWs)   bands (ev):

    -3.6525   3.3736   4.0700   5.9154   9.2666   9.3447

          k = 0.6250-0.3750 0.8750 (  4479 PWs)   bands (ev):

    -2.6172   1.4441   3.5987   5.1173   9.0164  10.2122

          k = 0.5000-0.2500 0.7500 (  4474 PWs)   bands (ev):

    -1.7575   0.1940   3.5823   4.7427   8.9933   9.9601

          k = 0.7500-0.2500 1.0000 (  4472 PWs)   bands (ev):

    -2.2472   1.9905   3.2208   3.8678   8.2024   8.4355

          k = 0.6250-0.1250 0.8750 (  4470 PWs)   bands (ev):

    -1.2544   0.9909   2.1593   3.6223   8.4525  10.5202

          k = 0.5000 0.0000 0.7500 (  4472 PWs)   bands (ev):

    -1.5904   1.3984   1.8102   4.1564   8.9774  11.3900

          k =-0.2500-1.0000 0.0000 (  4460 PWs)   bands (ev):

    -0.9473   0.6336   2.9333   3.1634   7.8557   8.1502

          k =-0.5000-1.0000 0.0000 (  4488 PWs)   bands (ev):

    -0.7962   1.5163   1.5163   2.5037   9.9241  11.2454

     the Fermi energy is     1.3380 ev

!    total energy              =     -38.40488177 Ry

     total all-electron energy =      -484.582576 Ry
     estimated scf accuracy    <       0.00000093 Ry
     smearing contrib. (-TS)   =       0.00048156 Ry
     internal energy E=F+TS    =     -38.40536333 Ry

     The total energy is F=E-TS. E is the sum of the following terms:
     one-electron contribution =       1.48484932 Ry
     hartree contribution      =       0.08330545 Ry
     xc contribution           =      -2.25048500 Ry
     ewald contribution        =      -4.04546654 Ry
     one-center paw contrib.   =     -33.67756657 Ry

     convergence has been achieved in   3 iterations

     Writing output data file ./temp/Al.save/

     init_run     :      1.69s CPU      1.72s WALL (       1 calls)
     electrons    :     10.62s CPU     10.46s WALL (       1 calls)

     Called by init_run:
     wfcinit      :      0.62s CPU      0.62s WALL (       1 calls)
     potinit      :      0.30s CPU      0.31s WALL (       1 calls)
     hinit0       :      0.63s CPU      0.63s WALL (       1 calls)

     Called by electrons:
     c_bands      :      7.78s CPU      7.61s WALL (       4 calls)
     sum_band     :      1.67s CPU      1.58s WALL (       4 calls)
     v_of_rho     :      0.22s CPU      0.24s WALL (       4 calls)
     newd         :      0.34s CPU      0.42s WALL (       4 calls)
     PAW_pot      :      0.97s CPU      0.99s WALL (       4 calls)
     mix_rho      :      0.01s CPU      0.03s WALL (       4 calls)

     Called by c_bands:
     init_us_2    :      0.45s CPU      0.46s WALL (     261 calls)
     cegterg      :      6.82s CPU      6.65s WALL (     116 calls)

     Called by *egterg:
     cdiaghg      :      0.04s CPU      0.04s WALL (     545 calls)
     h_psi        :      6.29s CPU      6.29s WALL (     603 calls)
     s_psi        :      0.23s CPU      0.15s WALL (     603 calls)
     g_psi        :      0.10s CPU      0.10s WALL (     458 calls)

     Called by h_psi:
     h_psi:calbec :      0.20s CPU      0.20s WALL (     603 calls)
     vloc_psi     :      5.85s CPU      5.91s WALL (     603 calls)
     add_vuspsi   :      0.22s CPU      0.15s WALL (     603 calls)

     General routines
     calbec       :      0.25s CPU      0.25s WALL (     719 calls)
     fft          :      0.07s CPU      0.07s WALL (      45 calls)
     ffts         :      0.01s CPU      0.01s WALL (       4 calls)
     fftw         :      6.06s CPU      6.12s WALL (    5196 calls)

     Parallel routines

     PWSCF        :     13.13s CPU     13.24s WALL


   This run was terminated on:  12:54:25   2Apr2025            

=------------------------------------------------------------------------------=
   JOB DONE.
=------------------------------------------------------------------------------=
