
     Program PWSCF v.6.6 starts on  2Apr2025 at 12:53:57 

     This program is part of the open-source Quantum ESPRESSO suite
     for quantum simulation of materials; please cite
         "P. Giannozzi et al., J. Phys.:Condens. Matter 21 395502 (2009);
         "P. Giannozzi et al., J. Phys.:Condens. Matter 29 465901 (2017);
          URL http://www.quantum-espresso.org", 
     in publications or presentations arising from this work. More details at
     http://www.quantum-espresso.org/quote

     Parallel version (MPI), running on     1 processors

     MPI processes distributed on     1 nodes
     Fft bands division:     nmany     =       1
     Reading input from Al.scf.100.444.in

     Current dimensions of program PWSCF are:
     Max number of different atomic species (ntypx) = 10
     Max number of k-points (npk) =  40000
     Max angular momentum in pseudopotentials (lmaxx) =  3
     file Al.pbesol-n-kjpaw_psl.1.0.0.UPF: wavefunction(s)  3S 3P renormalized

     Subspace diagonalization in iterative solution of the eigenvalue problem:
     a serial algorithm will be used


     G-vector sticks info
     --------------------
     sticks:   dense  smooth     PW     G-vecs:    dense   smooth      PW
     Sum        1417    1417    421                35749    35749    5577



     bravais-lattice index     =            2
     lattice parameter (alat)  =      10.2000  a.u.
     unit-cell volume          =     265.3020 (a.u.)^3
     number of atoms/cell      =            1
     number of atomic types    =            1
     number of electrons       =         3.00
     number of Kohn-Sham states=            6
     kinetic-energy cutoff     =     100.0000  Ry
     charge density cutoff     =     400.0000  Ry
     convergence threshold     =      1.0E-06
     mixing beta               =       0.7000
     number of iterations used =            8  plain     mixing
     Exchange-correlation= SLA PW PSX PSC
                           (   1   4  10   8   0   0   0)

     celldm(1)=  10.200000  celldm(2)=   0.000000  celldm(3)=   0.000000
     celldm(4)=   0.000000  celldm(5)=   0.000000  celldm(6)=   0.000000

     crystal axes: (cart. coord. in units of alat)
               a(1) = (  -0.500000   0.000000   0.500000 )  
               a(2) = (   0.000000   0.500000   0.500000 )  
               a(3) = (  -0.500000   0.500000   0.000000 )  

     reciprocal axes: (cart. coord. in units 2 pi/alat)
               b(1) = ( -1.000000 -1.000000  1.000000 )  
               b(2) = (  1.000000  1.000000  1.000000 )  
               b(3) = ( -1.000000  1.000000 -1.000000 )  


     PseudoPot. # 1 for Al read from file:
     ../pseudo/Al.pbesol-n-kjpaw_psl.1.0.0.UPF
     MD5 check sum: fed048700f41f568201cacb08e201ac8
     Pseudo is Projector augmented-wave + core cor, Zval =  3.0
     Generated using "atomic" code by A. Dal Corso v.6.3
     Shape of augmentation charge: PSQ
     Using radial grid of 1135 points,  6 beta functions with: 
                l(1) =   0
                l(2) =   0
                l(3) =   1
                l(4) =   1
                l(5) =   2
                l(6) =   2
     Q(r) pseudized with 0 coefficients 


     atomic species   valence    mass     pseudopotential
        Al             3.00    26.98000     Al( 1.00)

     48 Sym. Ops., with inversion, found



   Cartesian axes

     site n.     atom                  positions (alat units)
         1           Al  tau(   1) = (   0.0000000   0.0000000   0.0000000  )

     number of k points=     8  Marzari-Vanderbilt smearing, width (Ry)=  0.0200
                       cart. coord. in units 2pi/alat
        k(    1) = (   0.0000000   0.0000000   0.0000000), wk =   0.0312500
        k(    2) = (  -0.2500000   0.2500000  -0.2500000), wk =   0.2500000
        k(    3) = (   0.5000000  -0.5000000   0.5000000), wk =   0.1250000
        k(    4) = (   0.0000000   0.5000000   0.0000000), wk =   0.1875000
        k(    5) = (   0.7500000  -0.2500000   0.7500000), wk =   0.7500000
        k(    6) = (   0.5000000   0.0000000   0.5000000), wk =   0.3750000
        k(    7) = (   0.0000000  -1.0000000   0.0000000), wk =   0.0937500
        k(    8) = (  -0.5000000  -1.0000000   0.0000000), wk =   0.1875000

     Dense  grid:    35749 G-vectors     FFT dimensions: (  45,  45,  45)

     Estimated max dynamical RAM per process >     129.65 MB

     Initial potential from superposition of free atoms

     starting charge    2.99781, renormalised to    3.00000
     Starting wfcs are    4 randomized atomic wfcs +    2 random wfcs
     Checking if some PAW data can be deallocated... 

     total cpu time spent up to now is        2.1 secs

     Self-consistent Calculation

     iteration #  1     ecut=   100.00 Ry     beta= 0.70
     Davidson diagonalization with overlap
     ethr =  1.00E-02,  avg # of iterations =  6.2

     Threshold (ethr) on eigenvalues was too large:
     Diagonalizing with lowered threshold

     Davidson diagonalization with overlap
     ethr =  1.26E-04,  avg # of iterations =  3.4

     total cpu time spent up to now is        4.1 secs

     total energy              =     -38.40174792 Ry
     estimated scf accuracy    <       0.00342386 Ry

     iteration #  2     ecut=   100.00 Ry     beta= 0.70
     Davidson diagonalization with overlap
     ethr =  1.14E-04,  avg # of iterations =  1.1

     total cpu time spent up to now is        5.2 secs

     total energy              =     -38.40185782 Ry
     estimated scf accuracy    <       0.00012019 Ry

     iteration #  3     ecut=   100.00 Ry     beta= 0.70
     Davidson diagonalization with overlap
     c_bands:  1 eigenvalues not converged
     ethr =  4.01E-06,  avg # of iterations =  5.2

     total cpu time spent up to now is        6.3 secs

     End of self-consistent calculation

          k = 0.0000 0.0000 0.0000 (  4477 PWs)   bands (ev):

    -5.1252   7.4493   7.4493   7.4493  10.2187  10.2188

          k =-0.2500 0.2500-0.2500 (  4501 PWs)   bands (ev):

    -4.2306   3.2338   6.7618   6.7618   9.3954  10.6536

          k = 0.5000-0.5000 0.5000 (  4476 PWs)   bands (ev):

    -2.2821  -0.3796   6.4224   6.4224   9.0142   9.6337

          k = 0.0000 0.5000 0.0000 (  4520 PWs)   bands (ev):

    -3.9286   4.5089   5.3045   5.3046   7.5189   8.2738

          k = 0.7500-0.2500 0.7500 (  4470 PWs)   bands (ev):

    -2.0314   0.9838   3.2411   5.0124   7.2178  10.6065

          k = 0.5000 0.0000 0.5000 (  4489 PWs)   bands (ev):

    -2.8058   2.1224   2.6912   6.1486   8.5905  11.6979

          k = 0.0000-1.0000 0.0000 (  4456 PWs)   bands (ev):

    -1.0593   0.3453   4.2369   4.2369   6.1375   6.2949

          k =-0.5000-1.0000 0.0000 (  4488 PWs)   bands (ev):

    -0.7786   1.5253   1.5253   2.5089   9.9328  11.2565

     the Fermi energy is     1.2555 ev

!    total energy              =     -38.40187476 Ry

     total all-electron energy =      -484.579569 Ry
     estimated scf accuracy    <       0.00000039 Ry
     smearing contrib. (-TS)   =       0.00132090 Ry
     internal energy E=F+TS    =     -38.40319566 Ry

     The total energy is F=E-TS. E is the sum of the following terms:
     one-electron contribution =       1.48959262 Ry
     hartree contribution      =       0.08583321 Ry
     xc contribution           =      -2.25341911 Ry
     ewald contribution        =      -4.04546654 Ry
     one-center paw contrib.   =     -33.67973586 Ry

     convergence has been achieved in   3 iterations

     Writing output data file ./temp/Al.save/

     init_run     :      1.24s CPU      1.27s WALL (       1 calls)
     electrons    :      4.20s CPU      4.20s WALL (       1 calls)

     Called by init_run:
     wfcinit      :      0.17s CPU      0.17s WALL (       1 calls)
     potinit      :      0.31s CPU      0.32s WALL (       1 calls)
     hinit0       :      0.63s CPU      0.64s WALL (       1 calls)

     Called by electrons:
     c_bands      :      2.17s CPU      2.14s WALL (       4 calls)
     sum_band     :      0.83s CPU      0.74s WALL (       4 calls)
     v_of_rho     :      0.23s CPU      0.25s WALL (       4 calls)
     newd         :      0.35s CPU      0.43s WALL (       4 calls)
     PAW_pot      :      0.98s CPU      1.00s WALL (       4 calls)
     mix_rho      :      0.01s CPU      0.03s WALL (       4 calls)

     Called by c_bands:
     init_us_2    :      0.12s CPU      0.13s WALL (      72 calls)
     cegterg      :      1.91s CPU      1.87s WALL (      32 calls)

     Called by *egterg:
     cdiaghg      :      0.01s CPU      0.01s WALL (     152 calls)
     h_psi        :      1.76s CPU      1.77s WALL (     168 calls)
     s_psi        :      0.07s CPU      0.04s WALL (     168 calls)
     g_psi        :      0.03s CPU      0.03s WALL (     128 calls)

     Called by h_psi:
     h_psi:calbec :      0.06s CPU      0.06s WALL (     168 calls)
     vloc_psi     :      1.63s CPU      1.66s WALL (     168 calls)
     add_vuspsi   :      0.06s CPU      0.04s WALL (     168 calls)

     General routines
     calbec       :      0.07s CPU      0.07s WALL (     200 calls)
     fft          :      0.08s CPU      0.08s WALL (      45 calls)
     ffts         :      0.01s CPU      0.01s WALL (       4 calls)
     fftw         :      1.70s CPU      1.73s WALL (    1424 calls)

     Parallel routines

     PWSCF        :      6.29s CPU      6.37s WALL


   This run was terminated on:  12:54: 3   2Apr2025            

=------------------------------------------------------------------------------=
   JOB DONE.
=------------------------------------------------------------------------------=
