
     Program PWSCF v.6.6 starts on  2Apr2025 at 12:54:25 

     This program is part of the open-source Quantum ESPRESSO suite
     for quantum simulation of materials; please cite
         "P. Giannozzi et al., J. Phys.:Condens. Matter 21 395502 (2009);
         "P. Giannozzi et al., J. Phys.:Condens. Matter 29 465901 (2017);
          URL http://www.quantum-espresso.org", 
     in publications or presentations arising from this work. More details at
     http://www.quantum-espresso.org/quote

     Parallel version (MPI), running on     1 processors

     MPI processes distributed on     1 nodes
     Fft bands division:     nmany     =       1
     Reading input from Al.scf.100.101010.in

     Current dimensions of program PWSCF are:
     Max number of different atomic species (ntypx) = 10
     Max number of k-points (npk) =  40000
     Max angular momentum in pseudopotentials (lmaxx) =  3
     file Al.pbesol-n-kjpaw_psl.1.0.0.UPF: wavefunction(s)  3S 3P renormalized

     Subspace diagonalization in iterative solution of the eigenvalue problem:
     a serial algorithm will be used


     G-vector sticks info
     --------------------
     sticks:   dense  smooth     PW     G-vecs:    dense   smooth      PW
     Sum        1417    1417    421                35749    35749    5673



     bravais-lattice index     =            2
     lattice parameter (alat)  =      10.2000  a.u.
     unit-cell volume          =     265.3020 (a.u.)^3
     number of atoms/cell      =            1
     number of atomic types    =            1
     number of electrons       =         3.00
     number of Kohn-Sham states=            6
     kinetic-energy cutoff     =     100.0000  Ry
     charge density cutoff     =     400.0000  Ry
     convergence threshold     =      1.0E-06
     mixing beta               =       0.7000
     number of iterations used =            8  plain     mixing
     Exchange-correlation= SLA PW PSX PSC
                           (   1   4  10   8   0   0   0)

     celldm(1)=  10.200000  celldm(2)=   0.000000  celldm(3)=   0.000000
     celldm(4)=   0.000000  celldm(5)=   0.000000  celldm(6)=   0.000000

     crystal axes: (cart. coord. in units of alat)
               a(1) = (  -0.500000   0.000000   0.500000 )  
               a(2) = (   0.000000   0.500000   0.500000 )  
               a(3) = (  -0.500000   0.500000   0.000000 )  

     reciprocal axes: (cart. coord. in units 2 pi/alat)
               b(1) = ( -1.000000 -1.000000  1.000000 )  
               b(2) = (  1.000000  1.000000  1.000000 )  
               b(3) = ( -1.000000  1.000000 -1.000000 )  


     PseudoPot. # 1 for Al read from file:
     ../pseudo/Al.pbesol-n-kjpaw_psl.1.0.0.UPF
     MD5 check sum: fed048700f41f568201cacb08e201ac8
     Pseudo is Projector augmented-wave + core cor, Zval =  3.0
     Generated using "atomic" code by A. Dal Corso v.6.3
     Shape of augmentation charge: PSQ
     Using radial grid of 1135 points,  6 beta functions with: 
                l(1) =   0
                l(2) =   0
                l(3) =   1
                l(4) =   1
                l(5) =   2
                l(6) =   2
     Q(r) pseudized with 0 coefficients 


     atomic species   valence    mass     pseudopotential
        Al             3.00    26.98000     Al( 1.00)

     48 Sym. Ops., with inversion, found



   Cartesian axes

     site n.     atom                  positions (alat units)
         1           Al  tau(   1) = (   0.0000000   0.0000000   0.0000000  )

     number of k points=    47  Marzari-Vanderbilt smearing, width (Ry)=  0.0200
                       cart. coord. in units 2pi/alat
        k(    1) = (   0.0000000   0.0000000   0.0000000), wk =   0.0020000
        k(    2) = (  -0.1000000   0.1000000  -0.1000000), wk =   0.0160000
        k(    3) = (  -0.2000000   0.2000000  -0.2000000), wk =   0.0160000
        k(    4) = (  -0.3000000   0.3000000  -0.3000000), wk =   0.0160000
        k(    5) = (  -0.4000000   0.4000000  -0.4000000), wk =   0.0160000
        k(    6) = (   0.5000000  -0.5000000   0.5000000), wk =   0.0080000
        k(    7) = (   0.0000000   0.2000000   0.0000000), wk =   0.0120000
        k(    8) = (  -0.1000000   0.3000000  -0.1000000), wk =   0.0480000
        k(    9) = (  -0.2000000   0.4000000  -0.2000000), wk =   0.0480000
        k(   10) = (  -0.3000000   0.5000000  -0.3000000), wk =   0.0480000
        k(   11) = (   0.6000000  -0.4000000   0.6000000), wk =   0.0480000
        k(   12) = (   0.5000000  -0.3000000   0.5000000), wk =   0.0480000
        k(   13) = (   0.4000000  -0.2000000   0.4000000), wk =   0.0480000
        k(   14) = (   0.3000000  -0.1000000   0.3000000), wk =   0.0480000
        k(   15) = (   0.2000000   0.0000000   0.2000000), wk =   0.0240000
        k(   16) = (   0.0000000   0.4000000   0.0000000), wk =   0.0120000
        k(   17) = (  -0.1000000   0.5000000  -0.1000000), wk =   0.0480000
        k(   18) = (  -0.2000000   0.6000000  -0.2000000), wk =   0.0480000
        k(   19) = (   0.7000000  -0.3000000   0.7000000), wk =   0.0480000
        k(   20) = (   0.6000000  -0.2000000   0.6000000), wk =   0.0480000
        k(   21) = (   0.5000000  -0.1000000   0.5000000), wk =   0.0480000
        k(   22) = (   0.4000000   0.0000000   0.4000000), wk =   0.0240000
        k(   23) = (   0.0000000   0.6000000   0.0000000), wk =   0.0120000
        k(   24) = (  -0.1000000   0.7000000  -0.1000000), wk =   0.0480000
        k(   25) = (   0.8000000  -0.2000000   0.8000000), wk =   0.0480000
        k(   26) = (   0.7000000  -0.1000000   0.7000000), wk =   0.0480000
        k(   27) = (   0.6000000  -0.0000000   0.6000000), wk =   0.0240000
        k(   28) = (   0.0000000   0.8000000   0.0000000), wk =   0.0120000
        k(   29) = (   0.9000000  -0.1000000   0.9000000), wk =   0.0480000
        k(   30) = (   0.8000000   0.0000000   0.8000000), wk =   0.0240000
        k(   31) = (   0.0000000  -1.0000000   0.0000000), wk =   0.0060000
        k(   32) = (  -0.2000000   0.4000000   0.0000000), wk =   0.0480000
        k(   33) = (  -0.3000000   0.5000000  -0.1000000), wk =   0.0960000
        k(   34) = (   0.6000000  -0.4000000   0.8000000), wk =   0.0960000
        k(   35) = (   0.5000000  -0.3000000   0.7000000), wk =   0.0480000
        k(   36) = (  -0.2000000   0.6000000   0.0000000), wk =   0.0480000
        k(   37) = (   0.7000000  -0.3000000   0.9000000), wk =   0.0960000
        k(   38) = (   0.6000000  -0.2000000   0.8000000), wk =   0.0960000
        k(   39) = (   0.5000000  -0.1000000   0.7000000), wk =   0.0960000
        k(   40) = (   0.4000000   0.0000000   0.6000000), wk =   0.0480000
        k(   41) = (   0.8000000  -0.2000000   1.0000000), wk =   0.0480000
        k(   42) = (   0.7000000  -0.1000000   0.9000000), wk =   0.0960000
        k(   43) = (   0.6000000   0.0000000   0.8000000), wk =   0.0480000
        k(   44) = (  -0.2000000  -1.0000000   0.0000000), wk =   0.0240000
        k(   45) = (   0.6000000  -0.2000000   1.0000000), wk =   0.0480000
        k(   46) = (   0.5000000  -0.1000000   0.9000000), wk =   0.0480000
        k(   47) = (  -0.4000000  -1.0000000   0.0000000), wk =   0.0240000

     Dense  grid:    35749 G-vectors     FFT dimensions: (  45,  45,  45)

     Estimated max dynamical RAM per process >     145.65 MB

     Initial potential from superposition of free atoms

     starting charge    2.99781, renormalised to    3.00000
     Starting wfcs are    4 randomized atomic wfcs +    2 random wfcs
     Checking if some PAW data can be deallocated... 

     total cpu time spent up to now is        2.9 secs

     Self-consistent Calculation

     iteration #  1     ecut=   100.00 Ry     beta= 0.70
     Davidson diagonalization with overlap
     ethr =  1.00E-02,  avg # of iterations =  5.9

     Threshold (ethr) on eigenvalues was too large:
     Diagonalizing with lowered threshold

     Davidson diagonalization with overlap
     ethr =  1.60E-04,  avg # of iterations =  3.6

     total cpu time spent up to now is       11.5 secs

     total energy              =     -38.40532991 Ry
     estimated scf accuracy    <       0.00445704 Ry

     iteration #  2     ecut=   100.00 Ry     beta= 0.70
     Davidson diagonalization with overlap
     ethr =  1.49E-04,  avg # of iterations =  1.0

     total cpu time spent up to now is       14.5 secs

     total energy              =     -38.40547218 Ry
     estimated scf accuracy    <       0.00015942 Ry

     iteration #  3     ecut=   100.00 Ry     beta= 0.70
     Davidson diagonalization with overlap
     c_bands:  1 eigenvalues not converged
     c_bands:  1 eigenvalues not converged
     ethr =  5.31E-06,  avg # of iterations =  5.8

     total cpu time spent up to now is       18.8 secs

     End of self-consistent calculation

          k = 0.0000 0.0000 0.0000 (  4477 PWs)   bands (ev):

    -5.1390   7.4276   7.4276   7.4276  10.2080  10.2081

          k =-0.1000 0.1000-0.1000 (  4498 PWs)   bands (ev):

    -4.9943   6.2637   7.2418   7.2418  10.0173  10.5344

          k =-0.2000 0.2000-0.2000 (  4492 PWs)   bands (ev):

    -4.5636   4.2368   6.8971   6.8973   9.5720  10.8476

          k =-0.3000 0.3000-0.3000 (  4495 PWs)   bands (ev):

    -3.8625   2.2477   6.6147   6.6149   9.2316  10.3361

          k =-0.4000 0.4000-0.4000 (  4500 PWs)   bands (ev):

    -2.9540   0.5360   6.4525   6.4525   9.0506   9.8177

          k = 0.5000-0.5000 0.5000 (  4476 PWs)   bands (ev):

    -2.3009  -0.3884   6.4022   6.4022   8.9983   9.6257

          k = 0.0000 0.2000 0.0000 (  4501 PWs)   bands (ev):

    -4.9459   6.7467   6.7643   6.7643   9.2925  11.1081

          k =-0.1000 0.3000-0.1000 (  4492 PWs)   bands (ev):

    -4.6103   4.9796   6.2976   6.6745   9.1991  10.7504

          k =-0.2000 0.4000-0.2000 (  4496 PWs)   bands (ev):

    -3.9975   2.9855   5.9949   6.2444   9.0859  10.4138

          k =-0.3000 0.5000-0.3000 (  4482 PWs)   bands (ev):

    -3.1456   1.1750   5.8003   5.8992   8.7531  10.2362

          k = 0.6000-0.4000 0.6000 (  4474 PWs)   bands (ev):

    -2.2833  -0.1332   5.4363   6.0097   8.7229  10.0922

          k = 0.5000-0.3000 0.5000 (  4479 PWs)   bands (ev):

    -2.5289   0.2028   5.2155   6.2972   9.0473  10.0288

          k = 0.4000-0.2000 0.4000 (  4484 PWs)   bands (ev):

    -3.4516   1.7482   5.1895   6.7031   9.6443  10.1216

          k = 0.3000-0.1000 0.3000 (  4491 PWs)   bands (ev):

    -4.2318   3.6409   5.3939   7.1306  10.1059  10.6299

          k = 0.2000 0.0000 0.2000 (  4489 PWs)   bands (ev):

    -4.7541   5.4785   5.9866   7.3980  10.1550  10.5964

          k = 0.0000 0.4000 0.0000 (  4536 PWs)   bands (ev):

    -4.3705   5.3294   5.7366   5.7368   8.0362   9.3004

          k =-0.1000 0.5000-0.1000 (  4503 PWs)   bands (ev):

    -3.8511   3.7955   5.2515   5.3625   7.9598   8.8542

          k =-0.2000 0.6000-0.2000 (  4479 PWs)   bands (ev):

    -3.0771   2.0302   4.5313   5.2190   7.6694  10.0205

          k = 0.7000-0.3000 0.7000 (  4473 PWs)   bands (ev):

    -2.1692   0.5454   3.9145   5.3148   7.6527  11.2463

          k = 0.6000-0.2000 0.6000 (  4489 PWs)   bands (ev):

    -1.9397   0.2397   3.5019   5.6388   7.9855  11.3565

          k = 0.5000-0.1000 0.5000 (  4478 PWs)   bands (ev):

    -2.7856   1.5161   3.3454   6.1525   8.6370  11.2227

          k = 0.4000 0.0000 0.4000 (  4489 PWs)   bands (ev):

    -3.6260   3.0589   3.6766   6.7493   9.5546  11.1176

          k = 0.0000 0.6000 0.0000 (  4504 PWs)   bands (ev):

    -3.4270   3.5753   4.9104   4.9105   7.0734   7.4515

          k =-0.1000 0.7000-0.1000 (  4482 PWs)   bands (ev):

    -2.7440   2.4826   3.9028   4.6927   6.8925   7.8833

          k = 0.8000-0.2000 0.8000 (  4473 PWs)   bands (ev):

    -1.8806   1.3155   2.7468   4.7239   6.8485   9.5377

          k = 0.7000-0.1000 0.7000 (  4473 PWs)   bands (ev):

    -1.3317   0.6954   2.0157   5.0011   7.1387  11.4251

          k = 0.6000-0.0000 0.6000 (  4474 PWs)   bands (ev):

    -1.9388   1.4375   1.8443   5.5015   7.7447  12.4457

          k = 0.0000 0.8000 0.0000 (  4456 PWs)   bands (ev):

    -2.1633   1.6657   4.3955   4.3955   6.4429   6.4843

          k = 0.9000-0.1000 0.9000 (  4456 PWs)   bands (ev):

    -1.4220   0.8637   3.3116   4.3490   6.3622   7.4604

          k = 0.8000 0.0000 0.8000 (  4480 PWs)   bands (ev):

    -0.9826   0.7141   1.9800   4.5553   6.5925   9.3663

          k = 0.0000-1.0000 0.0000 (  4456 PWs)   bands (ev):

    -1.0803   0.3340   4.2215   4.2215   6.1326   6.2867

          k =-0.2000 0.4000 0.0000 (  4500 PWs)   bands (ev):

    -4.1827   4.2315   4.8630   6.5562   9.2352   9.8664

          k =-0.3000 0.5000-0.1000 (  4484 PWs)   bands (ev):

    -3.4874   2.5423   4.3430   6.0307   9.1375  10.1928

          k = 0.6000-0.4000 0.8000 (  4477 PWs)   bands (ev):

    -2.5897   0.8847   4.2334   5.5026   8.9532   9.9699

          k = 0.5000-0.3000 0.7000 (  4466 PWs)   bands (ev):

    -1.9511  -0.0157   4.2353   5.2768   8.9358   9.7441

          k =-0.2000 0.6000 0.0000 (  4493 PWs)   bands (ev):

    -3.2487   3.0706   3.9837   4.9534   8.3524   8.3727

          k = 0.7000-0.3000 0.9000 (  4483 PWs)   bands (ev):

    -2.4184   1.7313   3.3308   4.3933   8.2202   9.8063

          k = 0.6000-0.2000 0.8000 (  4472 PWs)   bands (ev):

    -1.6039   0.5752   2.8868   4.3293   8.3727  10.8894

          k = 0.5000-0.1000 0.7000 (  4473 PWs)   bands (ev):

    -1.8454   0.9133   2.5933   4.6894   8.7801  10.7758

          k = 0.4000 0.0000 0.6000 (  4479 PWs)   bands (ev):

    -2.7290   2.1414   2.7673   5.3260   9.3251  10.6017

          k = 0.8000-0.2000 1.0000 (  4471 PWs)   bands (ev):

    -2.0102   1.6751   3.4410   3.7588   7.6029   7.8012

          k = 0.7000-0.1000 0.9000 (  4473 PWs)   bands (ev):

    -1.2230   1.0302   2.2232   3.6808   7.7932   9.4937

          k = 0.6000 0.0000 0.8000 (  4462 PWs)   bands (ev):

    -1.1400   1.2807   1.3399   4.0443   8.1782  11.3715

          k =-0.2000-1.0000 0.0000 (  4468 PWs)   bands (ev):

    -0.9941   0.5242   3.2583   3.4112   7.3645   7.6150

          k = 0.6000-0.2000 1.0000 (  4471 PWs)   bands (ev):

    -1.5975   1.4883   2.2101   3.4794   9.4236  10.1052

          k = 0.5000-0.1000 0.9000 (  4468 PWs)   bands (ev):

    -1.0660   1.0448   1.9573   3.1280   9.5815  10.8001

          k =-0.4000-1.0000 0.0000 (  4464 PWs)   bands (ev):

    -0.8329   1.0917   2.0230   2.6157   9.3600   9.9338

     the Fermi energy is     1.3095 ev

!    total energy              =     -38.40550316 Ry

     total all-electron energy =      -484.583198 Ry
     estimated scf accuracy    <       0.00000090 Ry
     smearing contrib. (-TS)   =       0.00046073 Ry
     internal energy E=F+TS    =     -38.40596389 Ry

     The total energy is F=E-TS. E is the sum of the following terms:
     one-electron contribution =       1.48373659 Ry
     hartree contribution      =       0.08235090 Ry
     xc contribution           =      -2.24956883 Ry
     ewald contribution        =      -4.04546654 Ry
     one-center paw contrib.   =     -33.67701601 Ry

     convergence has been achieved in   3 iterations

     Writing output data file ./temp/Al.save/

     init_run     :      2.04s CPU      2.08s WALL (       1 calls)
     electrons    :     16.06s CPU     15.82s WALL (       1 calls)

     Called by init_run:
     wfcinit      :      0.98s CPU      0.98s WALL (       1 calls)
     potinit      :      0.31s CPU      0.32s WALL (       1 calls)
     hinit0       :      0.61s CPU      0.62s WALL (       1 calls)

     Called by electrons:
     c_bands      :     12.59s CPU     12.33s WALL (       4 calls)
     sum_band     :      2.34s CPU      2.26s WALL (       4 calls)
     v_of_rho     :      0.20s CPU      0.22s WALL (       4 calls)
     newd         :      0.33s CPU      0.41s WALL (       4 calls)
     PAW_pot      :      0.96s CPU      0.97s WALL (       4 calls)
     mix_rho      :      0.01s CPU      0.03s WALL (       4 calls)

     Called by c_bands:
     init_us_2    :      0.74s CPU      0.74s WALL (     423 calls)
     cegterg      :     11.03s CPU     10.77s WALL (     188 calls)

     Called by *egterg:
     cdiaghg      :      0.07s CPU      0.08s WALL (     906 calls)
     h_psi        :     10.12s CPU     10.13s WALL (    1000 calls)
     s_psi        :      0.37s CPU      0.24s WALL (    1000 calls)
     g_psi        :      0.17s CPU      0.17s WALL (     765 calls)

     Called by h_psi:
     h_psi:calbec :      0.33s CPU      0.32s WALL (    1000 calls)
     vloc_psi     :      9.41s CPU      9.51s WALL (    1000 calls)
     add_vuspsi   :      0.34s CPU      0.25s WALL (    1000 calls)

     General routines
     calbec       :      0.41s CPU      0.40s WALL (    1188 calls)
     fft          :      0.07s CPU      0.07s WALL (      45 calls)
     ffts         :      0.01s CPU      0.01s WALL (       4 calls)
     fftw         :      9.71s CPU      9.81s WALL (    8452 calls)

     Parallel routines

     PWSCF        :     18.97s CPU     19.34s WALL


   This run was terminated on:  12:54:45   2Apr2025            

=------------------------------------------------------------------------------=
   JOB DONE.
=------------------------------------------------------------------------------=
