
     Program PWSCF v.6.6 starts on 25Mar2025 at  0:34:10 

     This program is part of the open-source Quantum ESPRESSO suite
     for quantum simulation of materials; please cite
         "P. Giannozzi et al., J. Phys.:Condens. Matter 21 395502 (2009);
         "P. Giannozzi et al., J. Phys.:Condens. Matter 29 465901 (2017);
          URL http://www.quantum-espresso.org", 
     in publications or presentations arising from this work. More details at
     http://www.quantum-espresso.org/quote

     Parallel version (MPI), running on     1 processors

     MPI processes distributed on     1 nodes
     Fft bands division:     nmany     =       1
     Reading input from Al.scf.40.666.in

     Current dimensions of program PWSCF are:
     Max number of different atomic species (ntypx) = 10
     Max number of k-points (npk) =  40000
     Max angular momentum in pseudopotentials (lmaxx) =  3

     Subspace diagonalization in iterative solution of the eigenvalue problem:
     a serial algorithm will be used


     G-vector sticks info
     --------------------
     sticks:   dense  smooth     PW     G-vecs:    dense   smooth      PW
     Sum         583     583    187                 9185     9185    1639



     bravais-lattice index     =            2
     lattice parameter (alat)  =      10.2000  a.u.
     unit-cell volume          =     265.3020 (a.u.)^3
     number of atoms/cell      =            1
     number of atomic types    =            1
     number of electrons       =         3.00
     number of Kohn-Sham states=           12
     kinetic-energy cutoff     =      40.0000  Ry
     charge density cutoff     =     160.0000  Ry
     convergence threshold     =      1.0E-06
     mixing beta               =       0.7000
     number of iterations used =            8  plain     mixing
     Exchange-correlation= PBE
                           (   1   4   3   4   0   0   0)
     Non magnetic calculation with spin-orbit


     celldm(1)=  10.200000  celldm(2)=   0.000000  celldm(3)=   0.000000
     celldm(4)=   0.000000  celldm(5)=   0.000000  celldm(6)=   0.000000

     crystal axes: (cart. coord. in units of alat)
               a(1) = (  -0.500000   0.000000   0.500000 )  
               a(2) = (   0.000000   0.500000   0.500000 )  
               a(3) = (  -0.500000   0.500000   0.000000 )  

     reciprocal axes: (cart. coord. in units 2 pi/alat)
               b(1) = ( -1.000000 -1.000000  1.000000 )  
               b(2) = (  1.000000  1.000000  1.000000 )  
               b(3) = ( -1.000000  1.000000 -1.000000 )  


     PseudoPot. # 1 for Al read from file:
     ../pseudo/Al.rel-pbe-nl-rrkjus_psl.1.0.0.UPF
     MD5 check sum: 49f37f8fe9babba23f1e8de5949893df
     Pseudo is Ultrasoft + core correction, Zval =  3.0
     Generated using "atomic" code by A. Dal Corso v.6.3
     Using radial grid of 1135 points,  6 beta functions with: 
                l(1) =   0
                l(2) =   0
                l(3) =   1
                l(4) =   1
                l(5) =   1
                l(6) =   1
     Q(r) pseudized with 0 coefficients 


     atomic species   valence    mass     pseudopotential
        Al             3.00    26.98000     Al( 1.00)

     48 Sym. Ops., with inversion, found



   Cartesian axes

     site n.     atom                  positions (alat units)
         1           Al  tau(   1) = (   0.0000000   0.0000000   0.0000000  )

     number of k points=    16  Marzari-Vanderbilt smearing, width (Ry)=  0.0200
                       cart. coord. in units 2pi/alat
        k(    1) = (   0.0000000   0.0000000   0.0000000), wk =   0.0046296
        k(    2) = (  -0.1666667   0.1666667  -0.1666667), wk =   0.0370370
        k(    3) = (  -0.3333333   0.3333333  -0.3333333), wk =   0.0370370
        k(    4) = (   0.5000000  -0.5000000   0.5000000), wk =   0.0185185
        k(    5) = (   0.0000000   0.3333333   0.0000000), wk =   0.0277778
        k(    6) = (  -0.1666667   0.5000000  -0.1666667), wk =   0.1111111
        k(    7) = (   0.6666667  -0.3333333   0.6666667), wk =   0.1111111
        k(    8) = (   0.5000000  -0.1666667   0.5000000), wk =   0.1111111
        k(    9) = (   0.3333333   0.0000000   0.3333333), wk =   0.0555556
        k(   10) = (   0.0000000   0.6666667   0.0000000), wk =   0.0277778
        k(   11) = (   0.8333333  -0.1666667   0.8333333), wk =   0.1111111
        k(   12) = (   0.6666667  -0.0000000   0.6666667), wk =   0.0555556
        k(   13) = (   0.0000000  -1.0000000   0.0000000), wk =   0.0138889
        k(   14) = (   0.6666667  -0.3333333   1.0000000), wk =   0.1111111
        k(   15) = (   0.5000000  -0.1666667   0.8333333), wk =   0.1111111
        k(   16) = (  -0.3333333  -1.0000000   0.0000000), wk =   0.0555556

     Dense  grid:     9185 G-vectors     FFT dimensions: (  30,  30,  30)

     Estimated max dynamical RAM per process >      40.91 MB

     Initial potential from superposition of free atoms

     starting charge    2.99774, renormalised to    3.00000
     Starting wfcs are    8 randomized atomic wfcs +    4 random wfcs

     total cpu time spent up to now is        1.6 secs

     Self-consistent Calculation

     iteration #  1     ecut=    40.00 Ry     beta= 0.70
     Davidson diagonalization with overlap
     ethr =  1.00E-02,  avg # of iterations =  6.6

     Threshold (ethr) on eigenvalues was too large:
     Diagonalizing with lowered threshold

     Davidson diagonalization with overlap
     ethr =  1.46E-04,  avg # of iterations =  4.1

     total cpu time spent up to now is        5.8 secs

     total energy              =      -4.93854094 Ry
     estimated scf accuracy    <       0.00404883 Ry

     iteration #  2     ecut=    40.00 Ry     beta= 0.70
     Davidson diagonalization with overlap
     ethr =  1.35E-04,  avg # of iterations =  1.1

     total cpu time spent up to now is        7.2 secs

     total energy              =      -4.93864273 Ry
     estimated scf accuracy    <       0.00019526 Ry

     iteration #  3     ecut=    40.00 Ry     beta= 0.70
     Davidson diagonalization with overlap
     ethr =  6.51E-06,  avg # of iterations =  5.1

     total cpu time spent up to now is        9.2 secs

     total energy              =      -4.93867251 Ry
     estimated scf accuracy    <       0.00000110 Ry

     iteration #  4     ecut=    40.00 Ry     beta= 0.70
     Davidson diagonalization with overlap
     ethr =  3.66E-08,  avg # of iterations =  3.7

     total cpu time spent up to now is       10.9 secs

     End of self-consistent calculation

          k = 0.0000 0.0000 0.0000 (  1139 PWs)   bands (ev):

    -5.0855  -5.0855   7.4385   7.4385   7.4790   7.4790   7.4790   7.4790
    10.2729  10.2729  10.2729  10.2730

          k =-0.1667 0.1667-0.1667 (  1137 PWs)   bands (ev):

    -4.6856  -4.6856   4.9796   4.9796   7.0406   7.0407   7.0646   7.0647
     9.7878   9.7881  10.9007  10.9017

          k =-0.3333 0.3333-0.3333 (  1149 PWs)   bands (ev):

    -3.5266  -3.5266   1.6977   1.6977   6.5764   6.5764   6.5997   6.5997
     9.2231   9.2232  10.2070  10.2077

          k = 0.5000-0.5000 0.5000 (  1158 PWs)   bands (ev):

    -2.2642  -2.2642  -0.3130  -0.3130   6.4303   6.4303   6.4540   6.4540
     9.0642   9.0643   9.6999   9.7000

          k = 0.0000 0.3333 0.0000 (  1138 PWs)   bands (ev):

    -4.5517  -4.5517   5.8851   5.8851   6.1064   6.1064   6.1253   6.1253
     8.5079   8.5079  10.1733  10.1734

          k =-0.1667 0.5000-0.1667 (  1128 PWs)   bands (ev):

    -3.6388  -3.6388   2.9789   2.9789   5.4078   5.4078   5.5411   5.5411
     8.2885   8.2885   9.9223   9.9223

          k = 0.6667-0.3333 0.6667 (  1133 PWs)   bands (ev):

    -2.1839  -2.1839   0.3527   0.3527   4.4684   4.4684   5.5932   5.5932
     8.0747   8.0747  11.1226  11.1239

          k = 0.5000-0.1667 0.5000 (  1134 PWs)   bands (ev):

    -2.6778  -2.6778   1.0961   1.0961   4.0159   4.0159   6.2336   6.2336
     8.8159   8.8159  10.8570  10.8570

          k = 0.3333 0.0000 0.3333 (  1127 PWs)   bands (ev):

    -4.0285  -4.0285   3.8559   3.8559   4.4777   4.4777   7.1163   7.1163
    10.2966  10.2966  10.7520  10.7523

          k = 0.0000 0.6667 0.0000 (  1118 PWs)   bands (ev):

    -2.9879  -2.9879   2.9841   2.9841   4.7451   4.7451   4.7624   4.7624
     6.9149   6.9149   7.1255   7.1255

          k = 0.8333-0.1667 0.8333 (  1127 PWs)   bands (ev):

    -1.7022  -1.7022   1.3832   1.3832   2.7827   2.7827   4.6243   4.6243
     6.7407   6.7407   8.8890   8.8890

          k = 0.6667-0.0000 0.6667 (  1141 PWs)   bands (ev):

    -1.3778  -1.3778   1.3214   1.3214   1.4517   1.4517   5.1774   5.1775
     7.3669   7.3669  12.1189  12.1189

          k = 0.0000-1.0000 0.0000 (  1138 PWs)   bands (ev):

    -1.0497  -1.0497   0.4007   0.4007   4.2656   4.2656   4.2825   4.2825
     6.2293   6.2293   6.3682   6.3682

          k = 0.6667-0.3333 1.0000 (  1124 PWs)   bands (ev):

    -2.5196  -2.5196   2.2131   2.2131   2.9857   2.9857   4.6015   4.6015
     9.2563   9.2563   9.6639   9.6640

          k = 0.5000-0.1667 0.8333 (  1138 PWs)   bands (ev):

    -1.3519  -1.3519   0.7021   0.7021   2.6480   2.6480   3.8834   3.8834
     9.3373   9.3375  10.4631  10.4635

          k =-0.3333-1.0000 0.0000 (  1138 PWs)   bands (ev):

    -0.8553  -0.8553   0.9273   0.9273   2.4713   2.4713   2.8857   2.8857
     8.7798   8.7798   9.1784   9.1784

     the Fermi energy is     1.3488 ev

!    total energy              =      -4.93867356 Ry
     estimated scf accuracy    <       0.00000004 Ry
     smearing contrib. (-TS)   =      -0.00050365 Ry
     internal energy E=F+TS    =      -4.93816992 Ry

     The total energy is F=E-TS. E is the sum of the following terms:
     one-electron contribution =       1.29251680 Ry
     hartree contribution      =       0.08431184 Ry
     xc contribution           =      -2.26953198 Ry
     ewald contribution        =      -4.04546658 Ry

     convergence has been achieved in   4 iterations

     Writing output data file ./temp/Al.save/

     init_run     :      0.92s CPU      0.95s WALL (       1 calls)
     electrons    :      9.23s CPU      9.26s WALL (       1 calls)

     Called by init_run:
     wfcinit      :      0.55s CPU      0.55s WALL (       1 calls)
     potinit      :      0.03s CPU      0.03s WALL (       1 calls)
     hinit0       :      0.32s CPU      0.33s WALL (       1 calls)

     Called by electrons:
     c_bands      :      7.66s CPU      7.64s WALL (       5 calls)
     sum_band     :      1.39s CPU      1.41s WALL (       5 calls)
     v_of_rho     :      0.11s CPU      0.12s WALL (       5 calls)
     newd         :      0.07s CPU      0.08s WALL (       5 calls)
     mix_rho      :      0.03s CPU      0.04s WALL (       5 calls)

     Called by c_bands:
     init_us_2    :      0.06s CPU      0.06s WALL (     176 calls)
     cegterg      :      7.47s CPU      7.44s WALL (      80 calls)

     Called by *egterg:
     cdiaghg      :      0.08s CPU      0.08s WALL (     393 calls)
     h_psi        :      7.02s CPU      7.17s WALL (     425 calls)
     s_psi        :      0.10s CPU      0.07s WALL (     425 calls)
     g_psi        :      0.06s CPU      0.06s WALL (     329 calls)

     Called by h_psi:
     h_psi:calbec :      0.09s CPU      0.10s WALL (     425 calls)
     vloc_psi     :      6.80s CPU      6.97s WALL (     425 calls)
     add_vuspsi   :      0.11s CPU      0.08s WALL (     425 calls)

     General routines
     calbec       :      0.12s CPU      0.12s WALL (     505 calls)
     fft          :      0.08s CPU      0.09s WALL (      68 calls)
     ffts         :      0.02s CPU      0.02s WALL (      20 calls)
     fftw         :      7.30s CPU      7.49s WALL (   13500 calls)

     Parallel routines

     PWSCF        :     10.84s CPU     10.95s WALL


   This run was terminated on:   0:34:21  25Mar2025            

=------------------------------------------------------------------------------=
   JOB DONE.
=------------------------------------------------------------------------------=
