
     Program PWSCF v.6.6 starts on 25Mar2025 at  0:34:39 

     This program is part of the open-source Quantum ESPRESSO suite
     for quantum simulation of materials; please cite
         "P. Giannozzi et al., J. Phys.:Condens. Matter 21 395502 (2009);
         "P. Giannozzi et al., J. Phys.:Condens. Matter 29 465901 (2017);
          URL http://www.quantum-espresso.org", 
     in publications or presentations arising from this work. More details at
     http://www.quantum-espresso.org/quote

     Parallel version (MPI), running on     1 processors

     MPI processes distributed on     1 nodes
     Fft bands division:     nmany     =       1
     Reading input from Al.scf.40.101010.in

     Current dimensions of program PWSCF are:
     Max number of different atomic species (ntypx) = 10
     Max number of k-points (npk) =  40000
     Max angular momentum in pseudopotentials (lmaxx) =  3

     Subspace diagonalization in iterative solution of the eigenvalue problem:
     a serial algorithm will be used


     G-vector sticks info
     --------------------
     sticks:   dense  smooth     PW     G-vecs:    dense   smooth      PW
     Sum         583     583    187                 9185     9185    1639



     bravais-lattice index     =            2
     lattice parameter (alat)  =      10.2000  a.u.
     unit-cell volume          =     265.3020 (a.u.)^3
     number of atoms/cell      =            1
     number of atomic types    =            1
     number of electrons       =         3.00
     number of Kohn-Sham states=           12
     kinetic-energy cutoff     =      40.0000  Ry
     charge density cutoff     =     160.0000  Ry
     convergence threshold     =      1.0E-06
     mixing beta               =       0.7000
     number of iterations used =            8  plain     mixing
     Exchange-correlation= PBE
                           (   1   4   3   4   0   0   0)
     Non magnetic calculation with spin-orbit


     celldm(1)=  10.200000  celldm(2)=   0.000000  celldm(3)=   0.000000
     celldm(4)=   0.000000  celldm(5)=   0.000000  celldm(6)=   0.000000

     crystal axes: (cart. coord. in units of alat)
               a(1) = (  -0.500000   0.000000   0.500000 )  
               a(2) = (   0.000000   0.500000   0.500000 )  
               a(3) = (  -0.500000   0.500000   0.000000 )  

     reciprocal axes: (cart. coord. in units 2 pi/alat)
               b(1) = ( -1.000000 -1.000000  1.000000 )  
               b(2) = (  1.000000  1.000000  1.000000 )  
               b(3) = ( -1.000000  1.000000 -1.000000 )  


     PseudoPot. # 1 for Al read from file:
     ../pseudo/Al.rel-pbe-nl-rrkjus_psl.1.0.0.UPF
     MD5 check sum: 49f37f8fe9babba23f1e8de5949893df
     Pseudo is Ultrasoft + core correction, Zval =  3.0
     Generated using "atomic" code by A. Dal Corso v.6.3
     Using radial grid of 1135 points,  6 beta functions with: 
                l(1) =   0
                l(2) =   0
                l(3) =   1
                l(4) =   1
                l(5) =   1
                l(6) =   1
     Q(r) pseudized with 0 coefficients 


     atomic species   valence    mass     pseudopotential
        Al             3.00    26.98000     Al( 1.00)

     48 Sym. Ops., with inversion, found



   Cartesian axes

     site n.     atom                  positions (alat units)
         1           Al  tau(   1) = (   0.0000000   0.0000000   0.0000000  )

     number of k points=    47  Marzari-Vanderbilt smearing, width (Ry)=  0.0200
                       cart. coord. in units 2pi/alat
        k(    1) = (   0.0000000   0.0000000   0.0000000), wk =   0.0010000
        k(    2) = (  -0.1000000   0.1000000  -0.1000000), wk =   0.0080000
        k(    3) = (  -0.2000000   0.2000000  -0.2000000), wk =   0.0080000
        k(    4) = (  -0.3000000   0.3000000  -0.3000000), wk =   0.0080000
        k(    5) = (  -0.4000000   0.4000000  -0.4000000), wk =   0.0080000
        k(    6) = (   0.5000000  -0.5000000   0.5000000), wk =   0.0040000
        k(    7) = (   0.0000000   0.2000000   0.0000000), wk =   0.0060000
        k(    8) = (  -0.1000000   0.3000000  -0.1000000), wk =   0.0240000
        k(    9) = (  -0.2000000   0.4000000  -0.2000000), wk =   0.0240000
        k(   10) = (  -0.3000000   0.5000000  -0.3000000), wk =   0.0240000
        k(   11) = (   0.6000000  -0.4000000   0.6000000), wk =   0.0240000
        k(   12) = (   0.5000000  -0.3000000   0.5000000), wk =   0.0240000
        k(   13) = (   0.4000000  -0.2000000   0.4000000), wk =   0.0240000
        k(   14) = (   0.3000000  -0.1000000   0.3000000), wk =   0.0240000
        k(   15) = (   0.2000000   0.0000000   0.2000000), wk =   0.0120000
        k(   16) = (   0.0000000   0.4000000   0.0000000), wk =   0.0060000
        k(   17) = (  -0.1000000   0.5000000  -0.1000000), wk =   0.0240000
        k(   18) = (  -0.2000000   0.6000000  -0.2000000), wk =   0.0240000
        k(   19) = (   0.7000000  -0.3000000   0.7000000), wk =   0.0240000
        k(   20) = (   0.6000000  -0.2000000   0.6000000), wk =   0.0240000
        k(   21) = (   0.5000000  -0.1000000   0.5000000), wk =   0.0240000
        k(   22) = (   0.4000000   0.0000000   0.4000000), wk =   0.0120000
        k(   23) = (   0.0000000   0.6000000   0.0000000), wk =   0.0060000
        k(   24) = (  -0.1000000   0.7000000  -0.1000000), wk =   0.0240000
        k(   25) = (   0.8000000  -0.2000000   0.8000000), wk =   0.0240000
        k(   26) = (   0.7000000  -0.1000000   0.7000000), wk =   0.0240000
        k(   27) = (   0.6000000  -0.0000000   0.6000000), wk =   0.0120000
        k(   28) = (   0.0000000   0.8000000   0.0000000), wk =   0.0060000
        k(   29) = (   0.9000000  -0.1000000   0.9000000), wk =   0.0240000
        k(   30) = (   0.8000000   0.0000000   0.8000000), wk =   0.0120000
        k(   31) = (   0.0000000  -1.0000000   0.0000000), wk =   0.0030000
        k(   32) = (  -0.2000000   0.4000000   0.0000000), wk =   0.0240000
        k(   33) = (  -0.3000000   0.5000000  -0.1000000), wk =   0.0480000
        k(   34) = (   0.6000000  -0.4000000   0.8000000), wk =   0.0480000
        k(   35) = (   0.5000000  -0.3000000   0.7000000), wk =   0.0240000
        k(   36) = (  -0.2000000   0.6000000   0.0000000), wk =   0.0240000
        k(   37) = (   0.7000000  -0.3000000   0.9000000), wk =   0.0480000
        k(   38) = (   0.6000000  -0.2000000   0.8000000), wk =   0.0480000
        k(   39) = (   0.5000000  -0.1000000   0.7000000), wk =   0.0480000
        k(   40) = (   0.4000000   0.0000000   0.6000000), wk =   0.0240000
        k(   41) = (   0.8000000  -0.2000000   1.0000000), wk =   0.0240000
        k(   42) = (   0.7000000  -0.1000000   0.9000000), wk =   0.0480000
        k(   43) = (   0.6000000   0.0000000   0.8000000), wk =   0.0240000
        k(   44) = (  -0.2000000  -1.0000000   0.0000000), wk =   0.0120000
        k(   45) = (   0.6000000  -0.2000000   1.0000000), wk =   0.0240000
        k(   46) = (   0.5000000  -0.1000000   0.9000000), wk =   0.0240000
        k(   47) = (  -0.4000000  -1.0000000   0.0000000), wk =   0.0120000

     Dense  grid:     9185 G-vectors     FFT dimensions: (  30,  30,  30)

     Estimated max dynamical RAM per process >      53.78 MB

     Initial potential from superposition of free atoms

     starting charge    2.99774, renormalised to    3.00000
     Starting wfcs are    8 randomized atomic wfcs +    4 random wfcs

     total cpu time spent up to now is        2.8 secs

     Self-consistent Calculation

     iteration #  1     ecut=    40.00 Ry     beta= 0.70
     Davidson diagonalization with overlap
     ethr =  1.00E-02,  avg # of iterations =  5.9

     Threshold (ethr) on eigenvalues was too large:
     Diagonalizing with lowered threshold

     Davidson diagonalization with overlap
     ethr =  1.42E-04,  avg # of iterations =  4.9

     total cpu time spent up to now is       14.4 secs

     total energy              =      -4.93852482 Ry
     estimated scf accuracy    <       0.00396654 Ry

     iteration #  2     ecut=    40.00 Ry     beta= 0.70
     Davidson diagonalization with overlap
     ethr =  1.32E-04,  avg # of iterations =  1.0

     total cpu time spent up to now is       18.1 secs

     total energy              =      -4.93861889 Ry
     estimated scf accuracy    <       0.00019827 Ry

     iteration #  3     ecut=    40.00 Ry     beta= 0.70
     Davidson diagonalization with overlap
     c_bands:  1 eigenvalues not converged
     c_bands:  1 eigenvalues not converged
     c_bands:  1 eigenvalues not converged
     ethr =  6.61E-06,  avg # of iterations =  5.9

     total cpu time spent up to now is       23.3 secs

     total energy              =      -4.93865085 Ry
     estimated scf accuracy    <       0.00000133 Ry

     iteration #  4     ecut=    40.00 Ry     beta= 0.70
     Davidson diagonalization with overlap
     ethr =  4.42E-08,  avg # of iterations =  3.6

     total cpu time spent up to now is       28.0 secs

     End of self-consistent calculation

          k = 0.0000 0.0000 0.0000 (  1139 PWs)   bands (ev):

    -5.0834  -5.0834   7.4412   7.4412   7.4818   7.4818   7.4818   7.4818
    10.2737  10.2737  10.2737  10.2737

          k =-0.1000 0.1000-0.1000 (  1137 PWs)   bands (ev):

    -4.9389  -4.9389   6.3131   6.3131   7.2715   7.2715   7.2967   7.2967
    10.0850  10.0851  10.5975  10.5981

          k =-0.2000 0.2000-0.2000 (  1134 PWs)   bands (ev):

    -4.5091  -4.5091   4.2940   4.2940   6.9289   6.9289   6.9525   6.9525
     9.6439   9.6439  10.9107  10.9124

          k =-0.3000 0.3000-0.3000 (  1131 PWs)   bands (ev):

    -3.8099  -3.8099   2.3098   2.3098   6.6465   6.6465   6.6697   6.6697
     9.3021   9.3021  10.4062  10.4073

          k =-0.4000 0.4000-0.4000 (  1149 PWs)   bands (ev):

    -2.9062  -2.9062   0.6042   0.6042   6.4834   6.4834   6.5068   6.5068
     9.1187   9.1187   9.8925   9.8926

          k = 0.5000-0.5000 0.5000 (  1158 PWs)   bands (ev):

    -2.2622  -2.2622  -0.3108  -0.3108   6.4324   6.4324   6.4560   6.4560
     9.0650   9.0651   9.7018   9.7019

          k = 0.0000 0.2000 0.0000 (  1147 PWs)   bands (ev):

    -4.8907  -4.8907   6.7786   6.7786   6.8114   6.8114   6.8220   6.8220
     9.3658   9.3659  11.1650  11.1673

          k =-0.1000 0.3000-0.1000 (  1141 PWs)   bands (ev):

    -4.5557  -4.5557   5.0330   5.0331   6.3460   6.3460   6.7197   6.7197
     9.2698   9.2699  10.8365  10.8366

          k =-0.2000 0.4000-0.2000 (  1129 PWs)   bands (ev):

    -3.9444  -3.9444   3.0451   3.0451   6.0435   6.0435   6.2909   6.2909
     9.1655   9.1655  10.4841  10.4842

          k =-0.3000 0.5000-0.3000 (  1132 PWs)   bands (ev):

    -3.0960  -3.0960   1.2402   1.2402   5.8465   5.8465   5.9483   5.9483
     8.8389   8.8389  10.3007  10.3007

          k = 0.6000-0.4000 0.6000 (  1127 PWs)   bands (ev):

    -2.2428  -2.2428  -0.0581  -0.0581   5.4852   5.4852   6.0563   6.0563
     8.8084   8.8084  10.1530  10.1530

          k = 0.5000-0.3000 0.5000 (  1140 PWs)   bands (ev):

    -2.4846  -2.4846   0.2741   0.2741   5.2668   5.2668   6.3413   6.3413
     9.1293   9.1294  10.0927  10.0950

          k = 0.4000-0.2000 0.4000 (  1137 PWs)   bands (ev):

    -3.4005  -3.4005   1.8115   1.8115   5.2426   5.2426   6.7445   6.7445
     9.7184   9.7184  10.1910  10.1910

          k = 0.3000-0.1000 0.3000 (  1135 PWs)   bands (ev):

    -4.1781  -4.1781   3.6987   3.6987   5.4481   5.4481   7.1699   7.1699
    10.1711  10.1712  10.7018  10.7020

          k = 0.2000 0.0000 0.2000 (  1141 PWs)   bands (ev):

    -4.6992  -4.6992   5.5291   5.5291   6.0406   6.0406   7.4368   7.4368
    10.2197  10.2197  10.6595  10.6600

          k = 0.0000 0.4000 0.0000 (  1134 PWs)   bands (ev):

    -4.3163  -4.3163   5.3724   5.3724   5.7786   5.7786   5.7971   5.7972
     8.1138   8.1139   9.3976   9.3976

          k =-0.1000 0.5000-0.1000 (  1129 PWs)   bands (ev):

    -3.7981  -3.7981   3.8477   3.8477   5.3021   5.3021   5.4151   5.4152
     8.0429   8.0430   8.9430   8.9430

          k =-0.2000 0.6000-0.2000 (  1121 PWs)   bands (ev):

    -3.0270  -3.0270   2.0903   2.0903   4.5849   4.5849   5.2709   5.2709
     7.7614   7.7614  10.0929  10.0929

          k = 0.7000-0.3000 0.7000 (  1129 PWs)   bands (ev):

    -2.1263  -2.1263   0.6151   0.6151   3.9706   3.9706   5.3657   5.3657
     7.7441   7.7441  11.3118  11.3118

          k = 0.6000-0.2000 0.6000 (  1135 PWs)   bands (ev):

    -1.9009  -1.9009   0.3141   0.3141   3.5601   3.5601   5.6879   5.6879
     8.0749   8.0749  11.4242  11.4285

          k = 0.5000-0.1000 0.5000 (  1132 PWs)   bands (ev):

    -2.7374  -2.7374   1.5801   1.5801   3.4055   3.4055   6.1987   6.1987
     8.7236   8.7236  11.2826  11.2826

          k = 0.4000 0.0000 0.4000 (  1131 PWs)   bands (ev):

    -3.5740  -3.5740   3.1149   3.1149   3.7395   3.7395   6.7913   6.7914
     9.6363   9.6364  11.1698  11.1705

          k = 0.0000 0.6000 0.0000 (  1126 PWs)   bands (ev):

    -3.3750  -3.3750   3.6199   3.6199   4.9550   4.9550   4.9725   4.9725
     7.1531   7.1532   7.5557   7.5557

          k =-0.1000 0.7000-0.1000 (  1131 PWs)   bands (ev):

    -2.6945  -2.6945   2.5312   2.5312   3.9665   3.9665   4.7463   4.7463
     6.9851   6.9852   7.9641   7.9641

          k = 0.8000-0.2000 0.8000 (  1133 PWs)   bands (ev):

    -1.8373  -1.8373   1.3744   1.3744   2.8140   2.8140   4.7771   4.7771
     6.9413   6.9413   9.6107   9.6107

          k = 0.7000-0.1000 0.7000 (  1136 PWs)   bands (ev):

    -1.2988  -1.2988   0.7692   0.7692   2.0817   2.0817   5.0532   5.0532
     7.2299   7.2299  11.4941  11.4942

          k = 0.6000-0.0000 0.6000 (  1131 PWs)   bands (ev):

    -1.8969  -1.8969   1.5030   1.5030   1.9104   1.9104   5.5515   5.5515
     7.8343   7.8343  12.5110  12.5116

          k = 0.0000 0.8000 0.0000 (  1126 PWs)   bands (ev):

    -2.1163  -2.1163   1.7180   1.7180   4.4412   4.4412   4.4582   4.4582
     6.5467   6.5467   6.5650   6.5650

          k = 0.9000-0.1000 0.9000 (  1134 PWs)   bands (ev):

    -1.3820  -1.3820   0.9229   0.9229   3.3784   3.3784   4.4032   4.4032
     6.4558   6.4558   7.5393   7.5393

          k = 0.8000 0.0000 0.8000 (  1144 PWs)   bands (ev):

    -0.9530  -0.9530   0.7813   0.7813   2.0547   2.0547   4.6089   4.6089
     6.6849   6.6849   9.4391   9.4391

          k = 0.0000-1.0000 0.0000 (  1138 PWs)   bands (ev):

    -1.0469  -1.0469   0.4015   0.4015   4.2676   4.2676   4.2845   4.2845
     6.2357   6.2358   6.3677   6.3677

          k =-0.2000 0.4000 0.0000 (  1132 PWs)   bands (ev):

    -4.1290  -4.1290   4.2835   4.2835   4.9218   4.9218   6.6002   6.6002
     9.3042   9.3042   9.9580   9.9581

          k =-0.3000 0.5000-0.1000 (  1128 PWs)   bands (ev):

    -3.4358  -3.4358   2.6017   2.6017   4.3997   4.3997   6.0805   6.0805
     9.2198   9.2198  10.2627  10.2628

          k = 0.6000-0.4000 0.8000 (  1136 PWs)   bands (ev):

    -2.5432  -2.5432   0.9517   0.9517   4.2877   4.2877   5.5580   5.5580
     9.0360   9.0360  10.0397  10.0397

          k = 0.5000-0.3000 0.7000 (  1132 PWs)   bands (ev):

    -1.9137  -1.9137   0.0611   0.0611   4.2879   4.2879   5.3350   5.3350
     9.0183   9.0183   9.8146   9.8146

          k =-0.2000 0.6000 0.0000 (  1134 PWs)   bands (ev):

    -3.1976  -3.1976   3.1200   3.1200   4.0447   4.0447   5.0126   5.0126
     8.4235   8.4235   8.4651   8.4651

          k = 0.7000-0.3000 0.9000 (  1137 PWs)   bands (ev):

    -2.3714  -2.3714   1.7905   1.7905   3.3892   3.3892   4.4589   4.4589
     8.3023   8.3023   9.8781   9.8781

          k = 0.6000-0.2000 0.8000 (  1133 PWs)   bands (ev):

    -1.5670  -1.5670   0.6479   0.6479   2.9456   2.9456   4.3945   4.3945
     8.4532   8.4532  10.9578  10.9579

          k = 0.5000-0.1000 0.7000 (  1134 PWs)   bands (ev):

    -1.8048  -1.8048   0.9825   0.9825   2.6543   2.6543   4.7516   4.7516
     8.8594   8.8594  10.8457  10.8457

          k = 0.4000 0.0000 0.6000 (  1135 PWs)   bands (ev):

    -2.6807  -2.6807   2.1992   2.1992   2.8319   2.8319   5.3835   5.3835
     9.4048   9.4048  10.6648  10.6651

          k = 0.8000-0.2000 1.0000 (  1124 PWs)   bands (ev):

    -1.9648  -1.9648   1.7270   1.7270   3.5029   3.5029   3.8290   3.8290
     7.6918   7.6918   7.8734   7.8735

          k = 0.7000-0.1000 0.9000 (  1137 PWs)   bands (ev):

    -1.1877  -1.1877   1.0918   1.0918   2.2947   2.2947   3.7481   3.7481
     7.8743   7.8743   9.5659   9.5659

          k = 0.6000 0.0000 0.8000 (  1142 PWs)   bands (ev):

    -1.1090  -1.1090   1.3470   1.3470   1.4137   1.4137   4.1094   4.1094
     8.2580   8.2580  11.4406  11.4408

          k =-0.2000-1.0000 0.0000 (  1136 PWs)   bands (ev):

    -0.9628  -0.9628   0.5915   0.5915   3.3203   3.3203   3.4826   3.4826
     7.4522   7.4522   7.6876   7.6877

          k = 0.6000-0.2000 1.0000 (  1135 PWs)   bands (ev):

    -1.5576  -1.5576   1.5477   1.5477   2.2755   2.2755   3.5527   3.5527
     9.5026   9.5026  10.1715  10.1716

          k = 0.5000-0.1000 0.9000 (  1130 PWs)   bands (ev):

    -1.0358  -1.0358   1.1171   1.1171   2.0191   2.0191   3.2038   3.2038
     9.6569   9.6570  10.8682  10.8683

          k =-0.4000-1.0000 0.0000 (  1138 PWs)   bands (ev):

    -0.8062  -0.8062   1.1585   1.1585   2.0886   2.0886   2.6972   2.6972
     9.4388   9.4389  10.0008  10.0008

     the Fermi energy is     1.3745 ev

!    total energy              =      -4.93865229 Ry
     estimated scf accuracy    <       0.00000007 Ry
     smearing contrib. (-TS)   =       0.00045986 Ry
     internal energy E=F+TS    =      -4.93911215 Ry

     The total energy is F=E-TS. E is the sum of the following terms:
     one-electron contribution =       1.29142819 Ry
     hartree contribution      =       0.08495052 Ry
     xc contribution           =      -2.27002427 Ry
     ewald contribution        =      -4.04546658 Ry

     convergence has been achieved in   4 iterations

     Writing output data file ./temp/Al.save/

     init_run     :      1.85s CPU      1.89s WALL (       1 calls)
     electrons    :     25.12s CPU     25.17s WALL (       1 calls)

     Called by init_run:
     wfcinit      :      1.44s CPU      1.46s WALL (       1 calls)
     potinit      :      0.03s CPU      0.03s WALL (       1 calls)
     hinit0       :      0.35s CPU      0.36s WALL (       1 calls)

     Called by electrons:
     c_bands      :     21.30s CPU     21.22s WALL (       5 calls)
     sum_band     :      3.65s CPU      3.75s WALL (       5 calls)
     v_of_rho     :      0.10s CPU      0.12s WALL (       5 calls)
     newd         :      0.07s CPU      0.08s WALL (       5 calls)
     mix_rho      :      0.03s CPU      0.04s WALL (       5 calls)

     Called by c_bands:
     init_us_2    :      0.17s CPU      0.17s WALL (     517 calls)
     cegterg      :     20.74s CPU     20.65s WALL (     235 calls)

     Called by *egterg:
     cdiaghg      :      0.23s CPU      0.24s WALL (    1187 calls)
     h_psi        :     19.22s CPU     19.65s WALL (    1281 calls)
     s_psi        :      0.30s CPU      0.20s WALL (    1281 calls)
     g_psi        :      0.18s CPU      0.19s WALL (     999 calls)

     Called by h_psi:
     h_psi:calbec :      0.27s CPU      0.28s WALL (    1281 calls)
     vloc_psi     :     18.59s CPU     19.09s WALL (    1281 calls)
     add_vuspsi   :      0.31s CPU      0.23s WALL (    1281 calls)

     General routines
     calbec       :      0.35s CPU      0.36s WALL (    1516 calls)
     fft          :      0.08s CPU      0.08s WALL (      68 calls)
     ffts         :      0.02s CPU      0.02s WALL (      20 calls)
     fftw         :     19.84s CPU     20.39s WALL (   40128 calls)

     Parallel routines

     PWSCF        :     27.73s CPU     28.27s WALL


   This run was terminated on:   0:35: 8  25Mar2025            

=------------------------------------------------------------------------------=
   JOB DONE.
=------------------------------------------------------------------------------=
