
     Program PWSCF v.6.6 starts on 25Mar2025 at  0:34:21 

     This program is part of the open-source Quantum ESPRESSO suite
     for quantum simulation of materials; please cite
         "P. Giannozzi et al., J. Phys.:Condens. Matter 21 395502 (2009);
         "P. Giannozzi et al., J. Phys.:Condens. Matter 29 465901 (2017);
          URL http://www.quantum-espresso.org", 
     in publications or presentations arising from this work. More details at
     http://www.quantum-espresso.org/quote

     Parallel version (MPI), running on     1 processors

     MPI processes distributed on     1 nodes
     Fft bands division:     nmany     =       1
     Reading input from Al.scf.40.888.in

     Current dimensions of program PWSCF are:
     Max number of different atomic species (ntypx) = 10
     Max number of k-points (npk) =  40000
     Max angular momentum in pseudopotentials (lmaxx) =  3

     Subspace diagonalization in iterative solution of the eigenvalue problem:
     a serial algorithm will be used


     G-vector sticks info
     --------------------
     sticks:   dense  smooth     PW     G-vecs:    dense   smooth      PW
     Sum         583     583    187                 9185     9185    1639



     bravais-lattice index     =            2
     lattice parameter (alat)  =      10.2000  a.u.
     unit-cell volume          =     265.3020 (a.u.)^3
     number of atoms/cell      =            1
     number of atomic types    =            1
     number of electrons       =         3.00
     number of Kohn-Sham states=           12
     kinetic-energy cutoff     =      40.0000  Ry
     charge density cutoff     =     160.0000  Ry
     convergence threshold     =      1.0E-06
     mixing beta               =       0.7000
     number of iterations used =            8  plain     mixing
     Exchange-correlation= PBE
                           (   1   4   3   4   0   0   0)
     Non magnetic calculation with spin-orbit


     celldm(1)=  10.200000  celldm(2)=   0.000000  celldm(3)=   0.000000
     celldm(4)=   0.000000  celldm(5)=   0.000000  celldm(6)=   0.000000

     crystal axes: (cart. coord. in units of alat)
               a(1) = (  -0.500000   0.000000   0.500000 )  
               a(2) = (   0.000000   0.500000   0.500000 )  
               a(3) = (  -0.500000   0.500000   0.000000 )  

     reciprocal axes: (cart. coord. in units 2 pi/alat)
               b(1) = ( -1.000000 -1.000000  1.000000 )  
               b(2) = (  1.000000  1.000000  1.000000 )  
               b(3) = ( -1.000000  1.000000 -1.000000 )  


     PseudoPot. # 1 for Al read from file:
     ../pseudo/Al.rel-pbe-nl-rrkjus_psl.1.0.0.UPF
     MD5 check sum: 49f37f8fe9babba23f1e8de5949893df
     Pseudo is Ultrasoft + core correction, Zval =  3.0
     Generated using "atomic" code by A. Dal Corso v.6.3
     Using radial grid of 1135 points,  6 beta functions with: 
                l(1) =   0
                l(2) =   0
                l(3) =   1
                l(4) =   1
                l(5) =   1
                l(6) =   1
     Q(r) pseudized with 0 coefficients 


     atomic species   valence    mass     pseudopotential
        Al             3.00    26.98000     Al( 1.00)

     48 Sym. Ops., with inversion, found



   Cartesian axes

     site n.     atom                  positions (alat units)
         1           Al  tau(   1) = (   0.0000000   0.0000000   0.0000000  )

     number of k points=    29  Marzari-Vanderbilt smearing, width (Ry)=  0.0200
                       cart. coord. in units 2pi/alat
        k(    1) = (   0.0000000   0.0000000   0.0000000), wk =   0.0019531
        k(    2) = (  -0.1250000   0.1250000  -0.1250000), wk =   0.0156250
        k(    3) = (  -0.2500000   0.2500000  -0.2500000), wk =   0.0156250
        k(    4) = (  -0.3750000   0.3750000  -0.3750000), wk =   0.0156250
        k(    5) = (   0.5000000  -0.5000000   0.5000000), wk =   0.0078125
        k(    6) = (   0.0000000   0.2500000   0.0000000), wk =   0.0117188
        k(    7) = (  -0.1250000   0.3750000  -0.1250000), wk =   0.0468750
        k(    8) = (  -0.2500000   0.5000000  -0.2500000), wk =   0.0468750
        k(    9) = (   0.6250000  -0.3750000   0.6250000), wk =   0.0468750
        k(   10) = (   0.5000000  -0.2500000   0.5000000), wk =   0.0468750
        k(   11) = (   0.3750000  -0.1250000   0.3750000), wk =   0.0468750
        k(   12) = (   0.2500000   0.0000000   0.2500000), wk =   0.0234375
        k(   13) = (   0.0000000   0.5000000   0.0000000), wk =   0.0117188
        k(   14) = (  -0.1250000   0.6250000  -0.1250000), wk =   0.0468750
        k(   15) = (   0.7500000  -0.2500000   0.7500000), wk =   0.0468750
        k(   16) = (   0.6250000  -0.1250000   0.6250000), wk =   0.0468750
        k(   17) = (   0.5000000   0.0000000   0.5000000), wk =   0.0234375
        k(   18) = (   0.0000000   0.7500000   0.0000000), wk =   0.0117188
        k(   19) = (   0.8750000  -0.1250000   0.8750000), wk =   0.0468750
        k(   20) = (   0.7500000   0.0000000   0.7500000), wk =   0.0234375
        k(   21) = (   0.0000000  -1.0000000   0.0000000), wk =   0.0058594
        k(   22) = (  -0.2500000   0.5000000   0.0000000), wk =   0.0468750
        k(   23) = (   0.6250000  -0.3750000   0.8750000), wk =   0.0937500
        k(   24) = (   0.5000000  -0.2500000   0.7500000), wk =   0.0468750
        k(   25) = (   0.7500000  -0.2500000   1.0000000), wk =   0.0468750
        k(   26) = (   0.6250000  -0.1250000   0.8750000), wk =   0.0937500
        k(   27) = (   0.5000000   0.0000000   0.7500000), wk =   0.0468750
        k(   28) = (  -0.2500000  -1.0000000   0.0000000), wk =   0.0234375
        k(   29) = (  -0.5000000  -1.0000000   0.0000000), wk =   0.0117188

     Dense  grid:     9185 G-vectors     FFT dimensions: (  30,  30,  30)

     Estimated max dynamical RAM per process >      46.31 MB

     Initial potential from superposition of free atoms

     starting charge    2.99774, renormalised to    3.00000
     Starting wfcs are    8 randomized atomic wfcs +    4 random wfcs

     total cpu time spent up to now is        1.9 secs

     Self-consistent Calculation

     iteration #  1     ecut=    40.00 Ry     beta= 0.70
     Davidson diagonalization with overlap
     ethr =  1.00E-02,  avg # of iterations =  6.0

     Threshold (ethr) on eigenvalues was too large:
     Diagonalizing with lowered threshold

     Davidson diagonalization with overlap
     ethr =  1.36E-04,  avg # of iterations =  4.4

     total cpu time spent up to now is        9.2 secs

     total energy              =      -4.93794613 Ry
     estimated scf accuracy    <       0.00375854 Ry

     iteration #  2     ecut=    40.00 Ry     beta= 0.70
     Davidson diagonalization with overlap
     ethr =  1.25E-04,  avg # of iterations =  1.0

     total cpu time spent up to now is       11.5 secs

     total energy              =      -4.93804176 Ry
     estimated scf accuracy    <       0.00018761 Ry

     iteration #  3     ecut=    40.00 Ry     beta= 0.70
     Davidson diagonalization with overlap
     c_bands:  1 eigenvalues not converged
     c_bands:  2 eigenvalues not converged
     ethr =  6.25E-06,  avg # of iterations =  6.1

     total cpu time spent up to now is       14.9 secs

     total energy              =      -4.93807061 Ry
     estimated scf accuracy    <       0.00000121 Ry

     iteration #  4     ecut=    40.00 Ry     beta= 0.70
     Davidson diagonalization with overlap
     ethr =  4.04E-08,  avg # of iterations =  3.7

     total cpu time spent up to now is       17.8 secs

     End of self-consistent calculation

          k = 0.0000 0.0000 0.0000 (  1139 PWs)   bands (ev):

    -5.0798  -5.0798   7.4462   7.4462   7.4868   7.4868   7.4868   7.4868
    10.2763  10.2763  10.2764  10.2764

          k =-0.1250 0.1250-0.1250 (  1137 PWs)   bands (ev):

    -4.8542  -4.8542   5.8344   5.8344   7.1934   7.1935   7.2182   7.2182
     9.9807   9.9811  10.7354  10.7363

          k =-0.2500 0.2500-0.2500 (  1131 PWs)   bands (ev):

    -4.1875  -4.1875   3.2829   3.2829   6.7785   6.7785   6.8018   6.8018
     9.4563   9.4563  10.7119  10.7139

          k =-0.3750 0.3750-0.3750 (  1143 PWs)   bands (ev):

    -3.1379  -3.1379   0.9951   0.9951   6.5174   6.5175   6.5407   6.5408
     9.1542   9.1542   9.9986   9.9989

          k = 0.5000-0.5000 0.5000 (  1158 PWs)   bands (ev):

    -2.2579  -2.2579  -0.3077  -0.3077   6.4369   6.4369   6.4605   6.4605
     9.0683   9.0685   9.7047   9.7047

          k = 0.0000 0.2500 0.0000 (  1151 PWs)   bands (ev):

    -4.7789  -4.7789   6.4786   6.4786   6.5483   6.5483   6.5661   6.5661
     9.0398   9.0398  11.2169  11.2171

          k =-0.1250 0.3750-0.1250 (  1130 PWs)   bands (ev):

    -4.2581  -4.2581   4.2379   4.2379   6.0135   6.0135   6.2987   6.2987
     8.9957   8.9957  10.2328  10.2329

          k =-0.2500 0.5000-0.2500 (  1141 PWs)   bands (ev):

    -3.3255  -3.3255   1.8702   1.8702   5.6619   5.6619   5.7828   5.7828
     8.6179   8.6179  10.6062  10.6063

          k = 0.6250-0.3750 0.6250 (  1133 PWs)   bands (ev):

    -2.2223  -2.2223   0.0804   0.0804   5.1134   5.1134   5.8921   5.8921
     8.5330   8.5330  10.5393  10.5394

          k = 0.5000-0.2500 0.5000 (  1131 PWs)   bands (ev):

    -2.5597  -2.5597   0.5588   0.5588   4.8084   4.8084   6.3036   6.3036
     9.0017   9.0020  10.4367  10.4437

          k = 0.3750-0.1250 0.3750 (  1130 PWs)   bands (ev):

    -3.6786  -3.6786   2.6316   2.6316   4.8464   4.8464   6.8954   6.8954
     9.9136   9.9137  10.5139  10.5193

          k = 0.2500 0.0000 0.2500 (  1151 PWs)   bands (ev):

    -4.4810  -4.4810   4.8873   4.8873   5.4591   5.4591   7.3729   7.3730
    10.3707  10.3721  10.9205  10.9222

          k = 0.0000 0.5000 0.0000 (  1118 PWs)   bands (ev):

    -3.8861  -3.8861   4.5362   4.5363   5.3356   5.3356   5.3535   5.3536
     7.5909   7.5910   8.3758   8.3759

          k =-0.1250 0.6250-0.1250 (  1128 PWs)   bands (ev):

    -3.0926  -3.0926   2.8648   2.8648   4.3193   4.3193   5.0086   5.0087
     7.3907   7.3908   8.6723   8.6723

          k = 0.7500-0.2500 0.7500 (  1128 PWs)   bands (ev):

    -2.0013  -2.0013   1.0405   1.0405   3.2909   3.2909   5.0523   5.0524
     7.3071   7.3071  10.6675  10.6675

          k = 0.6250-0.1250 0.6250 (  1137 PWs)   bands (ev):

    -1.7054  -1.7054   0.6598   0.6598   2.6842   2.6842   5.4671   5.4671
     7.7491   7.7491  12.1613  12.1618

          k = 0.5000 0.0000 0.5000 (  1125 PWs)   bands (ev):

    -2.7692  -2.7692   2.1713   2.1713   2.7467   2.7467   6.1809   6.1809
     8.6729   8.6729  11.7454  11.7460

          k = 0.0000 0.7500 0.0000 (  1126 PWs)   bands (ev):

    -2.4498  -2.4498   2.1912   2.1912   4.5422   4.5422   4.5593   4.5593
     6.6774   6.6774   6.7320   6.7320

          k = 0.8750-0.1250 0.8750 (  1135 PWs)   bands (ev):

    -1.5008  -1.5008   1.1306   1.1306   3.1023   3.1024   4.4780   4.4780
     6.5508   6.5508   8.0292   8.0292

          k = 0.7500 0.0000 0.7500 (  1136 PWs)   bands (ev):

    -0.9995  -0.9995   0.9969   0.9969   1.6070   1.6070   4.7965   4.7965
     6.9062   6.9062  10.4772  10.4772

          k = 0.0000-1.0000 0.0000 (  1138 PWs)   bands (ev):

    -1.0418  -1.0418   0.4042   0.4042   4.2714   4.2714   4.2883   4.2883
     6.2406   6.2406   6.3693   6.3693

          k =-0.2500 0.5000 0.0000 (  1131 PWs)   bands (ev):

    -3.6001  -3.6001   3.4266   3.4266   4.1314   4.1314   5.9661   5.9661
     9.3348   9.3348   9.4359   9.4359

          k = 0.6250-0.3750 0.8750 (  1136 PWs)   bands (ev):

    -2.5696  -2.5696   1.5079   1.5079   3.6558   3.6558   5.1771   5.1771
     9.0982   9.0983  10.2810  10.2816

          k = 0.5000-0.2500 0.7500 (  1128 PWs)   bands (ev):

    -1.7213  -1.7213   0.2708   0.2708   3.6366   3.6366   4.8067   4.8067
     9.0741   9.0741  10.0311  10.0311

          k = 0.7500-0.2500 1.0000 (  1129 PWs)   bands (ev):

    -2.2006  -2.2006   2.0412   2.0412   3.2838   3.2838   3.9392   3.9392
     8.2902   8.2902   8.5058   8.5058

          k = 0.6250-0.1250 0.8750 (  1133 PWs)   bands (ev):

    -1.2204  -1.2204   1.0589   1.0589   2.2251   2.2251   3.6925   3.6925
     8.5319   8.5319  10.5902  10.5903

          k = 0.5000 0.0000 0.7500 (  1138 PWs)   bands (ev):

    -1.5518  -1.5518   1.4643   1.4643   1.8763   1.8763   4.2228   4.2228
     9.0556   9.0557  11.4575  11.4615

          k =-0.2500-1.0000 0.0000 (  1134 PWs)   bands (ev):

    -0.9173  -0.9173   0.7009   0.7009   2.9967   2.9967   3.2388   3.2388
     7.9418   7.9418   8.2210   8.2211

          k =-0.5000-1.0000 0.0000 (  1144 PWs)   bands (ev):

    -0.7708  -0.7708   1.5773   1.5773   1.5881   1.5881   2.5878   2.5878
    10.0022  10.0023  11.3083  11.3087

     the Fermi energy is     1.4024 ev

!    total energy              =      -4.93807193 Ry
     estimated scf accuracy    <       0.00000005 Ry
     smearing contrib. (-TS)   =       0.00050439 Ry
     internal energy E=F+TS    =      -4.93857632 Ry

     The total energy is F=E-TS. E is the sum of the following terms:
     one-electron contribution =       1.29196509 Ry
     hartree contribution      =       0.08593474 Ry
     xc contribution           =      -2.27100956 Ry
     ewald contribution        =      -4.04546658 Ry

     convergence has been achieved in   4 iterations

     Writing output data file ./temp/Al.save/

     init_run     :      1.27s CPU      1.30s WALL (       1 calls)
     electrons    :     15.90s CPU     15.93s WALL (       1 calls)

     Called by init_run:
     wfcinit      :      0.88s CPU      0.89s WALL (       1 calls)
     potinit      :      0.03s CPU      0.03s WALL (       1 calls)
     hinit0       :      0.34s CPU      0.34s WALL (       1 calls)

     Called by electrons:
     c_bands      :     13.40s CPU     13.36s WALL (       5 calls)
     sum_band     :      2.33s CPU      2.37s WALL (       5 calls)
     v_of_rho     :      0.10s CPU      0.11s WALL (       5 calls)
     newd         :      0.07s CPU      0.08s WALL (       5 calls)
     mix_rho      :      0.03s CPU      0.04s WALL (       5 calls)

     Called by c_bands:
     init_us_2    :      0.11s CPU      0.11s WALL (     319 calls)
     cegterg      :     13.06s CPU     13.00s WALL (     145 calls)

     Called by *egterg:
     cdiaghg      :      0.14s CPU      0.15s WALL (     731 calls)
     h_psi        :     12.10s CPU     12.38s WALL (     789 calls)
     s_psi        :      0.19s CPU      0.13s WALL (     789 calls)
     g_psi        :      0.11s CPU      0.11s WALL (     615 calls)

     Called by h_psi:
     h_psi:calbec :      0.17s CPU      0.17s WALL (     789 calls)
     vloc_psi     :     11.70s CPU     12.02s WALL (     789 calls)
     add_vuspsi   :      0.20s CPU      0.14s WALL (     789 calls)

     General routines
     calbec       :      0.22s CPU      0.23s WALL (     934 calls)
     fft          :      0.08s CPU      0.08s WALL (      68 calls)
     ffts         :      0.02s CPU      0.02s WALL (      20 calls)
     fftw         :     12.54s CPU     12.87s WALL (   24796 calls)

     Parallel routines

     PWSCF        :     17.79s CPU     17.99s WALL


   This run was terminated on:   0:34:39  25Mar2025            

=------------------------------------------------------------------------------=
   JOB DONE.
=------------------------------------------------------------------------------=
