
     Program PWSCF v.6.6 starts on 25Mar2025 at  0:34: 4 

     This program is part of the open-source Quantum ESPRESSO suite
     for quantum simulation of materials; please cite
         "P. Giannozzi et al., J. Phys.:Condens. Matter 21 395502 (2009);
         "P. Giannozzi et al., J. Phys.:Condens. Matter 29 465901 (2017);
          URL http://www.quantum-espresso.org", 
     in publications or presentations arising from this work. More details at
     http://www.quantum-espresso.org/quote

     Parallel version (MPI), running on     1 processors

     MPI processes distributed on     1 nodes
     Fft bands division:     nmany     =       1
     Reading input from Al.scf.40.444.in

     Current dimensions of program PWSCF are:
     Max number of different atomic species (ntypx) = 10
     Max number of k-points (npk) =  40000
     Max angular momentum in pseudopotentials (lmaxx) =  3

     Subspace diagonalization in iterative solution of the eigenvalue problem:
     a serial algorithm will be used


     G-vector sticks info
     --------------------
     sticks:   dense  smooth     PW     G-vecs:    dense   smooth      PW
     Sum         583     583    169                 9185     9185    1471



     bravais-lattice index     =            2
     lattice parameter (alat)  =      10.2000  a.u.
     unit-cell volume          =     265.3020 (a.u.)^3
     number of atoms/cell      =            1
     number of atomic types    =            1
     number of electrons       =         3.00
     number of Kohn-Sham states=           12
     kinetic-energy cutoff     =      40.0000  Ry
     charge density cutoff     =     160.0000  Ry
     convergence threshold     =      1.0E-06
     mixing beta               =       0.7000
     number of iterations used =            8  plain     mixing
     Exchange-correlation= PBE
                           (   1   4   3   4   0   0   0)
     Non magnetic calculation with spin-orbit


     celldm(1)=  10.200000  celldm(2)=   0.000000  celldm(3)=   0.000000
     celldm(4)=   0.000000  celldm(5)=   0.000000  celldm(6)=   0.000000

     crystal axes: (cart. coord. in units of alat)
               a(1) = (  -0.500000   0.000000   0.500000 )  
               a(2) = (   0.000000   0.500000   0.500000 )  
               a(3) = (  -0.500000   0.500000   0.000000 )  

     reciprocal axes: (cart. coord. in units 2 pi/alat)
               b(1) = ( -1.000000 -1.000000  1.000000 )  
               b(2) = (  1.000000  1.000000  1.000000 )  
               b(3) = ( -1.000000  1.000000 -1.000000 )  


     PseudoPot. # 1 for Al read from file:
     ../pseudo/Al.rel-pbe-nl-rrkjus_psl.1.0.0.UPF
     MD5 check sum: 49f37f8fe9babba23f1e8de5949893df
     Pseudo is Ultrasoft + core correction, Zval =  3.0
     Generated using "atomic" code by A. Dal Corso v.6.3
     Using radial grid of 1135 points,  6 beta functions with: 
                l(1) =   0
                l(2) =   0
                l(3) =   1
                l(4) =   1
                l(5) =   1
                l(6) =   1
     Q(r) pseudized with 0 coefficients 


     atomic species   valence    mass     pseudopotential
        Al             3.00    26.98000     Al( 1.00)

     48 Sym. Ops., with inversion, found



   Cartesian axes

     site n.     atom                  positions (alat units)
         1           Al  tau(   1) = (   0.0000000   0.0000000   0.0000000  )

     number of k points=     8  Marzari-Vanderbilt smearing, width (Ry)=  0.0200
                       cart. coord. in units 2pi/alat
        k(    1) = (   0.0000000   0.0000000   0.0000000), wk =   0.0156250
        k(    2) = (  -0.2500000   0.2500000  -0.2500000), wk =   0.1250000
        k(    3) = (   0.5000000  -0.5000000   0.5000000), wk =   0.0625000
        k(    4) = (   0.0000000   0.5000000   0.0000000), wk =   0.0937500
        k(    5) = (   0.7500000  -0.2500000   0.7500000), wk =   0.3750000
        k(    6) = (   0.5000000   0.0000000   0.5000000), wk =   0.1875000
        k(    7) = (   0.0000000  -1.0000000   0.0000000), wk =   0.0468750
        k(    8) = (  -0.5000000  -1.0000000   0.0000000), wk =   0.0937500

     Dense  grid:     9185 G-vectors     FFT dimensions: (  30,  30,  30)

     Estimated max dynamical RAM per process >      37.60 MB

     Initial potential from superposition of free atoms

     starting charge    2.99774, renormalised to    3.00000
     Starting wfcs are    8 randomized atomic wfcs +    4 random wfcs

     total cpu time spent up to now is        1.3 secs

     Self-consistent Calculation

     iteration #  1     ecut=    40.00 Ry     beta= 0.70
     Davidson diagonalization with overlap
     ethr =  1.00E-02,  avg # of iterations =  6.1

     Threshold (ethr) on eigenvalues was too large:
     Diagonalizing with lowered threshold

     Davidson diagonalization with overlap
     ethr =  1.13E-04,  avg # of iterations =  4.6

     total cpu time spent up to now is        3.5 secs

     total energy              =      -4.93507184 Ry
     estimated scf accuracy    <       0.00302283 Ry

     iteration #  2     ecut=    40.00 Ry     beta= 0.70
     Davidson diagonalization with overlap
     ethr =  1.01E-04,  avg # of iterations =  1.2

     total cpu time spent up to now is        4.2 secs

     total energy              =      -4.93514208 Ry
     estimated scf accuracy    <       0.00015167 Ry

     iteration #  3     ecut=    40.00 Ry     beta= 0.70
     Davidson diagonalization with overlap
     ethr =  5.06E-06,  avg # of iterations =  4.9

     total cpu time spent up to now is        5.2 secs

     total energy              =      -4.93516461 Ry
     estimated scf accuracy    <       0.00000105 Ry

     iteration #  4     ecut=    40.00 Ry     beta= 0.70
     Davidson diagonalization with overlap
     ethr =  3.49E-08,  avg # of iterations =  3.1

     total cpu time spent up to now is        6.1 secs

     End of self-consistent calculation

          k = 0.0000 0.0000 0.0000 (  1139 PWs)   bands (ev):

    -5.0700  -5.0700   7.4591   7.4591   7.4995   7.4995   7.4995   7.4995
    10.2862  10.2862  10.2862  10.2862

          k =-0.2500 0.2500-0.2500 (  1131 PWs)   bands (ev):

    -4.1774  -4.1774   3.2926   3.2926   6.7910   6.7910   6.8143   6.8143
     9.4687   9.4687  10.7203  10.7223

          k = 0.5000-0.5000 0.5000 (  1158 PWs)   bands (ev):

    -2.2450  -2.2450  -0.3014  -0.3014   6.4498   6.4498   6.4734   6.4734
     9.0826   9.0827   9.7109   9.7109

          k = 0.0000 0.5000 0.0000 (  1118 PWs)   bands (ev):

    -3.8759  -3.8759   4.5495   4.5495   5.3464   5.3464   5.3643   5.3643
     7.6018   7.6018   8.3746   8.3746

          k = 0.7500-0.2500 0.7500 (  1128 PWs)   bands (ev):

    -1.9894  -1.9894   1.0493   1.0493   3.3012   3.3012   5.0631   5.0631
     7.3110   7.3110  10.6760  10.6760

          k = 0.5000 0.0000 0.5000 (  1125 PWs)   bands (ev):

    -2.7581  -2.7581   2.1801   2.1801   2.7570   2.7570   6.1930   6.1930
     8.6781   8.6781  11.7521  11.7533

          k = 0.0000-1.0000 0.0000 (  1138 PWs)   bands (ev):

    -1.0288  -1.0288   0.4142   0.4142   4.2816   4.2816   4.2985   4.2985
     6.2385   6.2385   6.3802   6.3803

          k =-0.5000-1.0000 0.0000 (  1144 PWs)   bands (ev):

    -0.7562  -0.7562   1.5874   1.5874   1.5982   1.5982   2.5911   2.5911
    10.0061  10.0064  11.3192  11.3238

     the Fermi energy is     1.3213 ev

!    total energy              =      -4.93516542 Ry
     estimated scf accuracy    <       0.00000004 Ry
     smearing contrib. (-TS)   =       0.00133022 Ry
     internal energy E=F+TS    =      -4.93649563 Ry

     The total energy is F=E-TS. E is the sum of the following terms:
     one-electron contribution =       1.29458684 Ry
     hartree contribution      =       0.08852506 Ry
     xc contribution           =      -2.27414095 Ry
     ewald contribution        =      -4.04546658 Ry

     convergence has been achieved in   4 iterations

     Writing output data file ./temp/Al.save/

     init_run     :      0.65s CPU      0.67s WALL (       1 calls)
     electrons    :      4.69s CPU      4.79s WALL (       1 calls)

     Called by init_run:
     wfcinit      :      0.27s CPU      0.28s WALL (       1 calls)
     potinit      :      0.03s CPU      0.03s WALL (       1 calls)
     hinit0       :      0.33s CPU      0.33s WALL (       1 calls)

     Called by electrons:
     c_bands      :      3.74s CPU      3.75s WALL (       5 calls)
     sum_band     :      0.77s CPU      0.77s WALL (       5 calls)
     v_of_rho     :      0.11s CPU      0.12s WALL (       5 calls)
     newd         :      0.07s CPU      0.08s WALL (       5 calls)
     mix_rho      :      0.03s CPU      0.10s WALL (       5 calls)

     Called by c_bands:
     init_us_2    :      0.03s CPU      0.03s WALL (      88 calls)
     cegterg      :      3.65s CPU      3.66s WALL (      40 calls)

     Called by *egterg:
     cdiaghg      :      0.04s CPU      0.07s WALL (     192 calls)
     h_psi        :      3.40s CPU      3.47s WALL (     208 calls)
     s_psi        :      0.05s CPU      0.04s WALL (     208 calls)
     g_psi        :      0.03s CPU      0.03s WALL (     160 calls)

     Called by h_psi:
     h_psi:calbec :      0.05s CPU      0.05s WALL (     208 calls)
     vloc_psi     :      3.29s CPU      3.37s WALL (     208 calls)
     add_vuspsi   :      0.06s CPU      0.04s WALL (     208 calls)

     General routines
     calbec       :      0.06s CPU      0.06s WALL (     248 calls)
     fft          :      0.08s CPU      0.08s WALL (      68 calls)
     ffts         :      0.02s CPU      0.02s WALL (      20 calls)
     fftw         :      3.55s CPU      3.64s WALL (    6716 calls)

     Parallel routines

     PWSCF        :      5.96s CPU      6.12s WALL


   This run was terminated on:   0:34:10  25Mar2025            

=------------------------------------------------------------------------------=
   JOB DONE.
=------------------------------------------------------------------------------=
