
     Program PWSCF v.6.6 starts on  2Apr2025 at 12:54:45 

     This program is part of the open-source Quantum ESPRESSO suite
     for quantum simulation of materials; please cite
         "P. Giannozzi et al., J. Phys.:Condens. Matter 21 395502 (2009);
         "P. Giannozzi et al., J. Phys.:Condens. Matter 29 465901 (2017);
          URL http://www.quantum-espresso.org", 
     in publications or presentations arising from this work. More details at
     http://www.quantum-espresso.org/quote

     Parallel version (MPI), running on     1 processors

     MPI processes distributed on     1 nodes
     Fft bands division:     nmany     =       1
     Reading input from Al.scf.100.444.in

     Current dimensions of program PWSCF are:
     Max number of different atomic species (ntypx) = 10
     Max number of k-points (npk) =  40000
     Max angular momentum in pseudopotentials (lmaxx) =  3

     Subspace diagonalization in iterative solution of the eigenvalue problem:
     a serial algorithm will be used


     G-vector sticks info
     --------------------
     sticks:   dense  smooth     PW     G-vecs:    dense   smooth      PW
     Sum        1417    1417    421                35749    35749    5577



     bravais-lattice index     =            2
     lattice parameter (alat)  =      10.2000  a.u.
     unit-cell volume          =     265.3020 (a.u.)^3
     number of atoms/cell      =            1
     number of atomic types    =            1
     number of electrons       =         3.00
     number of Kohn-Sham states=           12
     kinetic-energy cutoff     =     100.0000  Ry
     charge density cutoff     =     400.0000  Ry
     convergence threshold     =      1.0E-06
     mixing beta               =       0.7000
     number of iterations used =            8  plain     mixing
     Exchange-correlation= PBE
                           (   1   4   3   4   0   0   0)
     Non magnetic calculation with spin-orbit


     celldm(1)=  10.200000  celldm(2)=   0.000000  celldm(3)=   0.000000
     celldm(4)=   0.000000  celldm(5)=   0.000000  celldm(6)=   0.000000

     crystal axes: (cart. coord. in units of alat)
               a(1) = (  -0.500000   0.000000   0.500000 )  
               a(2) = (   0.000000   0.500000   0.500000 )  
               a(3) = (  -0.500000   0.500000   0.000000 )  

     reciprocal axes: (cart. coord. in units 2 pi/alat)
               b(1) = ( -1.000000 -1.000000  1.000000 )  
               b(2) = (  1.000000  1.000000  1.000000 )  
               b(3) = ( -1.000000  1.000000 -1.000000 )  


     PseudoPot. # 1 for Al read from file:
     ../pseudo/Al.rel-pbe-nl-rrkjus_psl.1.0.0.UPF
     MD5 check sum: 49f37f8fe9babba23f1e8de5949893df
     Pseudo is Ultrasoft + core correction, Zval =  3.0
     Generated using "atomic" code by A. Dal Corso v.6.3
     Using radial grid of 1135 points,  6 beta functions with: 
                l(1) =   0
                l(2) =   0
                l(3) =   1
                l(4) =   1
                l(5) =   1
                l(6) =   1
     Q(r) pseudized with 0 coefficients 


     atomic species   valence    mass     pseudopotential
        Al             3.00    26.98000     Al( 1.00)

     48 Sym. Ops., with inversion, found



   Cartesian axes

     site n.     atom                  positions (alat units)
         1           Al  tau(   1) = (   0.0000000   0.0000000   0.0000000  )

     number of k points=     8  Marzari-Vanderbilt smearing, width (Ry)=  0.0200
                       cart. coord. in units 2pi/alat
        k(    1) = (   0.0000000   0.0000000   0.0000000), wk =   0.0156250
        k(    2) = (  -0.2500000   0.2500000  -0.2500000), wk =   0.1250000
        k(    3) = (   0.5000000  -0.5000000   0.5000000), wk =   0.0625000
        k(    4) = (   0.0000000   0.5000000   0.0000000), wk =   0.0937500
        k(    5) = (   0.7500000  -0.2500000   0.7500000), wk =   0.3750000
        k(    6) = (   0.5000000   0.0000000   0.5000000), wk =   0.1875000
        k(    7) = (   0.0000000  -1.0000000   0.0000000), wk =   0.0468750
        k(    8) = (  -0.5000000  -1.0000000   0.0000000), wk =   0.0937500

     Dense  grid:    35749 G-vectors     FFT dimensions: (  45,  45,  45)

     Estimated max dynamical RAM per process >     142.61 MB

     Initial potential from superposition of free atoms

     starting charge    2.99774, renormalised to    3.00000
     Starting wfcs are    8 randomized atomic wfcs +    4 random wfcs

     total cpu time spent up to now is        2.0 secs

     Self-consistent Calculation

     iteration #  1     ecut=   100.00 Ry     beta= 0.70
     Davidson diagonalization with overlap
     ethr =  1.00E-02,  avg # of iterations =  6.8

     Threshold (ethr) on eigenvalues was too large:
     Diagonalizing with lowered threshold

     Davidson diagonalization with overlap
     ethr =  1.14E-04,  avg # of iterations =  4.1

     total cpu time spent up to now is        7.6 secs

     total energy              =      -4.93508671 Ry
     estimated scf accuracy    <       0.00302227 Ry

     iteration #  2     ecut=   100.00 Ry     beta= 0.70
     Davidson diagonalization with overlap
     ethr =  1.01E-04,  avg # of iterations =  1.9

     total cpu time spent up to now is        9.5 secs

     total energy              =      -4.93515879 Ry
     estimated scf accuracy    <       0.00015001 Ry

     iteration #  3     ecut=   100.00 Ry     beta= 0.70
     Davidson diagonalization with overlap
     c_bands:  2 eigenvalues not converged
     ethr =  5.00E-06,  avg # of iterations =  5.6

     total cpu time spent up to now is       12.1 secs

     End of self-consistent calculation

          k = 0.0000 0.0000 0.0000 (  4477 PWs)   bands (ev):

    -5.0719  -5.0719   7.4551   7.4551   7.4956   7.4956   7.4956   7.4956
    10.2849  10.2849  10.2850  10.2854

          k =-0.2500 0.2500-0.2500 (  4501 PWs)   bands (ev):

    -4.1794  -4.1793   3.2904   3.2904   6.7876   6.7878   6.8108   6.8109
     9.4677   9.4678  10.7185  10.7200

          k = 0.5000-0.5000 0.5000 (  4476 PWs)   bands (ev):

    -2.2477  -2.2477  -0.3025  -0.3025   6.4464   6.4464   6.4700   6.4700
     9.0815   9.0815   9.7097   9.7098

          k = 0.0000 0.5000 0.0000 (  4520 PWs)   bands (ev):

    -3.8779  -3.8779   4.5464   4.5464   5.3436   5.3437   5.3616   5.3616
     7.6016   7.6017   8.3738   8.3739

          k = 0.7500-0.2500 0.7500 (  4470 PWs)   bands (ev):

    -1.9919  -1.9919   1.0476   1.0476   3.2992   3.2992   5.0604   5.0604
     7.3104   7.3106  10.6740  10.6740

          k = 0.5000 0.0000 0.5000 (  4489 PWs)   bands (ev):

    -2.7604  -2.7604   2.1778   2.1778   2.7554   2.7554   6.1898   6.1898
     8.6772   8.6772  11.7531  11.7628

          k = 0.0000-1.0000 0.0000 (  4456 PWs)   bands (ev):

    -1.0320  -1.0320   0.4130   0.4130   4.2791   4.2791   4.2960   4.2960
     6.2375   6.2376   6.3802   6.3803

          k =-0.5000-1.0000 0.0000 (  4488 PWs)   bands (ev):

    -0.7597  -0.7597   1.5860   1.5860   1.5968   1.5968   2.5897   2.5897
    10.0036  10.0036  11.3171  11.3228

     the Fermi energy is     1.3197 ev

!    total energy              =      -4.93518031 Ry
     estimated scf accuracy    <       0.00000089 Ry
     smearing contrib. (-TS)   =       0.00133165 Ry
     internal energy E=F+TS    =      -4.93651197 Ry

     The total energy is F=E-TS. E is the sum of the following terms:
     one-electron contribution =       1.29457756 Ry
     hartree contribution      =       0.08853924 Ry
     xc contribution           =      -2.27416223 Ry
     ewald contribution        =      -4.04546654 Ry

     convergence has been achieved in   3 iterations

     Writing output data file ./temp/Al.save/

     init_run     :      1.32s CPU      1.35s WALL (       1 calls)
     electrons    :     10.30s CPU     10.07s WALL (       1 calls)

     Called by init_run:
     wfcinit      :      0.65s CPU      0.65s WALL (       1 calls)
     potinit      :      0.07s CPU      0.08s WALL (       1 calls)
     hinit0       :      0.53s CPU      0.53s WALL (       1 calls)

     Called by electrons:
     c_bands      :      8.25s CPU      7.99s WALL (       4 calls)
     sum_band     :      1.68s CPU      1.64s WALL (       4 calls)
     v_of_rho     :      0.23s CPU      0.25s WALL (       4 calls)
     newd         :      0.17s CPU      0.21s WALL (       4 calls)
     mix_rho      :      0.05s CPU      0.08s WALL (       4 calls)

     Called by c_bands:
     init_us_2    :      0.09s CPU      0.09s WALL (      72 calls)
     cegterg      :      7.95s CPU      7.68s WALL (      32 calls)

     Called by *egterg:
     cdiaghg      :      0.03s CPU      0.04s WALL (     171 calls)
     h_psi        :      7.12s CPU      7.15s WALL (     187 calls)
     s_psi        :      0.14s CPU      0.08s WALL (     187 calls)
     g_psi        :      0.11s CPU      0.11s WALL (     147 calls)

     Called by h_psi:
     h_psi:calbec :      0.14s CPU      0.14s WALL (     187 calls)
     vloc_psi     :      6.80s CPU      6.88s WALL (     187 calls)
     add_vuspsi   :      0.15s CPU      0.09s WALL (     187 calls)

     General routines
     calbec       :      0.18s CPU      0.18s WALL (     219 calls)
     fft          :      0.09s CPU      0.09s WALL (      54 calls)
     ffts         :      0.03s CPU      0.03s WALL (      16 calls)
     fftw         :      7.08s CPU      7.16s WALL (    5672 calls)

     Parallel routines

     PWSCF        :     12.27s CPU     12.15s WALL


   This run was terminated on:  12:54:57   2Apr2025            

=------------------------------------------------------------------------------=
   JOB DONE.
=------------------------------------------------------------------------------=
