
     Program PWSCF v.6.6 starts on  2Apr2025 at 12:55:24 

     This program is part of the open-source Quantum ESPRESSO suite
     for quantum simulation of materials; please cite
         "P. Giannozzi et al., J. Phys.:Condens. Matter 21 395502 (2009);
         "P. Giannozzi et al., J. Phys.:Condens. Matter 29 465901 (2017);
          URL http://www.quantum-espresso.org", 
     in publications or presentations arising from this work. More details at
     http://www.quantum-espresso.org/quote

     Parallel version (MPI), running on     1 processors

     MPI processes distributed on     1 nodes
     Fft bands division:     nmany     =       1
     Reading input from Al.scf.100.888.in

     Current dimensions of program PWSCF are:
     Max number of different atomic species (ntypx) = 10
     Max number of k-points (npk) =  40000
     Max angular momentum in pseudopotentials (lmaxx) =  3

     Subspace diagonalization in iterative solution of the eigenvalue problem:
     a serial algorithm will be used


     G-vector sticks info
     --------------------
     sticks:   dense  smooth     PW     G-vecs:    dense   smooth      PW
     Sum        1417    1417    421                35749    35749    5601



     bravais-lattice index     =            2
     lattice parameter (alat)  =      10.2000  a.u.
     unit-cell volume          =     265.3020 (a.u.)^3
     number of atoms/cell      =            1
     number of atomic types    =            1
     number of electrons       =         3.00
     number of Kohn-Sham states=           12
     kinetic-energy cutoff     =     100.0000  Ry
     charge density cutoff     =     400.0000  Ry
     convergence threshold     =      1.0E-06
     mixing beta               =       0.7000
     number of iterations used =            8  plain     mixing
     Exchange-correlation= PBE
                           (   1   4   3   4   0   0   0)
     Non magnetic calculation with spin-orbit


     celldm(1)=  10.200000  celldm(2)=   0.000000  celldm(3)=   0.000000
     celldm(4)=   0.000000  celldm(5)=   0.000000  celldm(6)=   0.000000

     crystal axes: (cart. coord. in units of alat)
               a(1) = (  -0.500000   0.000000   0.500000 )  
               a(2) = (   0.000000   0.500000   0.500000 )  
               a(3) = (  -0.500000   0.500000   0.000000 )  

     reciprocal axes: (cart. coord. in units 2 pi/alat)
               b(1) = ( -1.000000 -1.000000  1.000000 )  
               b(2) = (  1.000000  1.000000  1.000000 )  
               b(3) = ( -1.000000  1.000000 -1.000000 )  


     PseudoPot. # 1 for Al read from file:
     ../pseudo/Al.rel-pbe-nl-rrkjus_psl.1.0.0.UPF
     MD5 check sum: 49f37f8fe9babba23f1e8de5949893df
     Pseudo is Ultrasoft + core correction, Zval =  3.0
     Generated using "atomic" code by A. Dal Corso v.6.3
     Using radial grid of 1135 points,  6 beta functions with: 
                l(1) =   0
                l(2) =   0
                l(3) =   1
                l(4) =   1
                l(5) =   1
                l(6) =   1
     Q(r) pseudized with 0 coefficients 


     atomic species   valence    mass     pseudopotential
        Al             3.00    26.98000     Al( 1.00)

     48 Sym. Ops., with inversion, found



   Cartesian axes

     site n.     atom                  positions (alat units)
         1           Al  tau(   1) = (   0.0000000   0.0000000   0.0000000  )

     number of k points=    29  Marzari-Vanderbilt smearing, width (Ry)=  0.0200
                       cart. coord. in units 2pi/alat
        k(    1) = (   0.0000000   0.0000000   0.0000000), wk =   0.0019531
        k(    2) = (  -0.1250000   0.1250000  -0.1250000), wk =   0.0156250
        k(    3) = (  -0.2500000   0.2500000  -0.2500000), wk =   0.0156250
        k(    4) = (  -0.3750000   0.3750000  -0.3750000), wk =   0.0156250
        k(    5) = (   0.5000000  -0.5000000   0.5000000), wk =   0.0078125
        k(    6) = (   0.0000000   0.2500000   0.0000000), wk =   0.0117188
        k(    7) = (  -0.1250000   0.3750000  -0.1250000), wk =   0.0468750
        k(    8) = (  -0.2500000   0.5000000  -0.2500000), wk =   0.0468750
        k(    9) = (   0.6250000  -0.3750000   0.6250000), wk =   0.0468750
        k(   10) = (   0.5000000  -0.2500000   0.5000000), wk =   0.0468750
        k(   11) = (   0.3750000  -0.1250000   0.3750000), wk =   0.0468750
        k(   12) = (   0.2500000   0.0000000   0.2500000), wk =   0.0234375
        k(   13) = (   0.0000000   0.5000000   0.0000000), wk =   0.0117188
        k(   14) = (  -0.1250000   0.6250000  -0.1250000), wk =   0.0468750
        k(   15) = (   0.7500000  -0.2500000   0.7500000), wk =   0.0468750
        k(   16) = (   0.6250000  -0.1250000   0.6250000), wk =   0.0468750
        k(   17) = (   0.5000000   0.0000000   0.5000000), wk =   0.0234375
        k(   18) = (   0.0000000   0.7500000   0.0000000), wk =   0.0117188
        k(   19) = (   0.8750000  -0.1250000   0.8750000), wk =   0.0468750
        k(   20) = (   0.7500000   0.0000000   0.7500000), wk =   0.0234375
        k(   21) = (   0.0000000  -1.0000000   0.0000000), wk =   0.0058594
        k(   22) = (  -0.2500000   0.5000000   0.0000000), wk =   0.0468750
        k(   23) = (   0.6250000  -0.3750000   0.8750000), wk =   0.0937500
        k(   24) = (   0.5000000  -0.2500000   0.7500000), wk =   0.0468750
        k(   25) = (   0.7500000  -0.2500000   1.0000000), wk =   0.0468750
        k(   26) = (   0.6250000  -0.1250000   0.8750000), wk =   0.0937500
        k(   27) = (   0.5000000   0.0000000   0.7500000), wk =   0.0468750
        k(   28) = (  -0.2500000  -1.0000000   0.0000000), wk =   0.0234375
        k(   29) = (  -0.5000000  -1.0000000   0.0000000), wk =   0.0117188

     Dense  grid:    35749 G-vectors     FFT dimensions: (  45,  45,  45)

     Estimated max dynamical RAM per process >     177.06 MB

     Initial potential from superposition of free atoms

     starting charge    2.99774, renormalised to    3.00000
     Starting wfcs are    8 randomized atomic wfcs +    4 random wfcs

     total cpu time spent up to now is        3.9 secs

     Self-consistent Calculation

     iteration #  1     ecut=   100.00 Ry     beta= 0.70
     Davidson diagonalization with overlap
     ethr =  1.00E-02,  avg # of iterations =  6.2

     Threshold (ethr) on eigenvalues was too large:
     Diagonalizing with lowered threshold

     Davidson diagonalization with overlap
     ethr =  1.38E-04,  avg # of iterations =  4.9

     total cpu time spent up to now is       23.9 secs

     total energy              =      -4.93796378 Ry
     estimated scf accuracy    <       0.00375736 Ry

     iteration #  2     ecut=   100.00 Ry     beta= 0.70
     Davidson diagonalization with overlap
     ethr =  1.25E-04,  avg # of iterations =  1.0

     total cpu time spent up to now is       29.8 secs

     total energy              =      -4.93805677 Ry
     estimated scf accuracy    <       0.00018861 Ry

     iteration #  3     ecut=   100.00 Ry     beta= 0.70
     Davidson diagonalization with overlap
     c_bands:  1 eigenvalues not converged
     c_bands:  2 eigenvalues not converged
     ethr =  6.29E-06,  avg # of iterations =  6.2

     total cpu time spent up to now is       38.2 secs

     total energy              =      -4.93808591 Ry
     estimated scf accuracy    <       0.00000126 Ry

     iteration #  4     ecut=   100.00 Ry     beta= 0.70
     Davidson diagonalization with overlap
     ethr =  4.20E-08,  avg # of iterations =  5.2

     total cpu time spent up to now is       46.5 secs

     End of self-consistent calculation

          k = 0.0000 0.0000 0.0000 (  4477 PWs)   bands (ev):

    -5.0798  -5.0798   7.4460   7.4460   7.4865   7.4865   7.4865   7.4865
    10.2760  10.2760  10.2760  10.2761

          k =-0.1250 0.1250-0.1250 (  4489 PWs)   bands (ev):

    -4.8543  -4.8543   5.8342   5.8342   7.1932   7.1932   7.2179   7.2179
     9.9804   9.9807  10.7347  10.7360

          k =-0.2500 0.2500-0.2500 (  4501 PWs)   bands (ev):

    -4.1876  -4.1876   3.2828   3.2828   6.7783   6.7784   6.8016   6.8016
     9.4562   9.4562  10.7118  10.7137

          k =-0.3750 0.3750-0.3750 (  4488 PWs)   bands (ev):

    -3.1379  -3.1379   0.9950   0.9950   6.5172   6.5172   6.5405   6.5405
     9.1540   9.1541   9.9984   9.9989

          k = 0.5000-0.5000 0.5000 (  4476 PWs)   bands (ev):

    -2.2579  -2.2579  -0.3077  -0.3077   6.4367   6.4367   6.4603   6.4603
     9.0682   9.0683   9.7045   9.7045

          k = 0.0000 0.2500 0.0000 (  4488 PWs)   bands (ev):

    -4.7789  -4.7789   6.4784   6.4784   6.5481   6.5481   6.5659   6.5659
     9.0396   9.0396  11.2168  11.2174

          k =-0.1250 0.3750-0.1250 (  4501 PWs)   bands (ev):

    -4.2581  -4.2581   4.2377   4.2377   6.0133   6.0134   6.2985   6.2985
     8.9955   8.9955  10.2324  10.2324

          k =-0.2500 0.5000-0.2500 (  4508 PWs)   bands (ev):

    -3.3255  -3.3255   1.8701   1.8701   5.6617   5.6617   5.7827   5.7827
     8.6177   8.6177  10.6060  10.6061

          k = 0.6250-0.3750 0.6250 (  4474 PWs)   bands (ev):

    -2.2224  -2.2224   0.0803   0.0803   5.1133   5.1133   5.8919   5.8919
     8.5328   8.5328  10.5391  10.5392

          k = 0.5000-0.2500 0.5000 (  4478 PWs)   bands (ev):

    -2.5597  -2.5597   0.5587   0.5587   4.8083   4.8083   6.3034   6.3034
     9.0014   9.0014  10.3905  10.4415

          k = 0.3750-0.1250 0.3750 (  4489 PWs)   bands (ev):

    -3.6787  -3.6787   2.6315   2.6315   4.8463   4.8463   6.8952   6.8952
     9.9134   9.9135  10.5141  10.5170

          k = 0.2500 0.0000 0.2500 (  4477 PWs)   bands (ev):

    -4.4811  -4.4811   4.8871   4.8872   5.4590   5.4590   7.3727   7.3727
    10.3700  10.3702  10.8783  10.9217

          k = 0.0000 0.5000 0.0000 (  4520 PWs)   bands (ev):

    -3.8862  -3.8862   4.5361   4.5361   5.3354   5.3354   5.3534   5.3534
     7.5908   7.5908   8.3757   8.3757

          k =-0.1250 0.6250-0.1250 (  4496 PWs)   bands (ev):

    -3.0927  -3.0927   2.8647   2.8647   4.3192   4.3192   5.0085   5.0085
     7.3906   7.3906   8.6721   8.6721

          k = 0.7500-0.2500 0.7500 (  4470 PWs)   bands (ev):

    -2.0014  -2.0014   1.0405   1.0405   3.2908   3.2908   5.0522   5.0522
     7.3069   7.3069  10.6672  10.6672

          k = 0.6250-0.1250 0.6250 (  4466 PWs)   bands (ev):

    -1.7055  -1.7055   0.6597   0.6597   2.6841   2.6841   5.4669   5.4669
     7.7489   7.7489  12.1620  12.1621

          k = 0.5000 0.0000 0.5000 (  4489 PWs)   bands (ev):

    -2.7693  -2.7693   2.1712   2.1712   2.7466   2.7466   6.1807   6.1807
     8.6728   8.6728  11.7451  11.7457

          k = 0.0000 0.7500 0.0000 (  4472 PWs)   bands (ev):

    -2.4499  -2.4499   2.1911   2.1911   4.5421   4.5421   4.5592   4.5592
     6.6773   6.6773   6.7319   6.7319

          k = 0.8750-0.1250 0.8750 (  4465 PWs)   bands (ev):

    -1.5009  -1.5009   1.1305   1.1305   3.1022   3.1022   4.4779   4.4779
     6.5506   6.5506   8.0291   8.0291

          k = 0.7500 0.0000 0.7500 (  4454 PWs)   bands (ev):

    -0.9996  -0.9996   0.9969   0.9969   1.6069   1.6069   4.7963   4.7963
     6.9061   6.9061  10.4770  10.4770

          k = 0.0000-1.0000 0.0000 (  4456 PWs)   bands (ev):

    -1.0419  -1.0419   0.4042   0.4042   4.2712   4.2712   4.2881   4.2881
     6.2405   6.2405   6.3691   6.3691

          k =-0.2500 0.5000 0.0000 (  4481 PWs)   bands (ev):

    -3.6002  -3.6002   3.4265   3.4265   4.1313   4.1313   5.9659   5.9659
     9.3346   9.3346   9.4357   9.4357

          k = 0.6250-0.3750 0.8750 (  4479 PWs)   bands (ev):

    -2.5697  -2.5697   1.5079   1.5079   3.6557   3.6557   5.1769   5.1769
     9.0980   9.0980  10.2808  10.2809

          k = 0.5000-0.2500 0.7500 (  4474 PWs)   bands (ev):

    -1.7214  -1.7214   0.2707   0.2707   3.6365   3.6365   4.8066   4.8066
     9.0738   9.0739  10.0309  10.0310

          k = 0.7500-0.2500 1.0000 (  4472 PWs)   bands (ev):

    -2.2007  -2.2007   2.0411   2.0411   3.2837   3.2837   3.9391   3.9391
     8.2900   8.2900   8.5056   8.5056

          k = 0.6250-0.1250 0.8750 (  4470 PWs)   bands (ev):

    -1.2205  -1.2205   1.0588   1.0588   2.2250   2.2250   3.6924   3.6924
     8.5317   8.5317  10.5900  10.5902

          k = 0.5000 0.0000 0.7500 (  4472 PWs)   bands (ev):

    -1.5519  -1.5519   1.4643   1.4643   1.8762   1.8762   4.2227   4.2227
     9.0554   9.0554  11.4572  11.4632

          k =-0.2500-1.0000 0.0000 (  4460 PWs)   bands (ev):

    -0.9174  -0.9174   0.7009   0.7009   2.9966   2.9966   3.2386   3.2386
     7.9416   7.9416   8.2208   8.2209

          k =-0.5000-1.0000 0.0000 (  4488 PWs)   bands (ev):

    -0.7709  -0.7709   1.5772   1.5772   1.5880   1.5880   2.5877   2.5877
    10.0020  10.0020  11.3076  11.3115

     the Fermi energy is     1.4024 ev

!    total energy              =      -4.93808730 Ry
     estimated scf accuracy    <       0.00000006 Ry
     smearing contrib. (-TS)   =       0.00050438 Ry
     internal energy E=F+TS    =      -4.93859168 Ry

     The total energy is F=E-TS. E is the sum of the following terms:
     one-electron contribution =       1.29193981 Ry
     hartree contribution      =       0.08593563 Ry
     xc contribution           =      -2.27100058 Ry
     ewald contribution        =      -4.04546654 Ry

     convergence has been achieved in   4 iterations

     Writing output data file ./temp/Al.save/

     init_run     :      3.17s CPU      3.21s WALL (       1 calls)
     electrons    :     43.62s CPU     42.54s WALL (       1 calls)

     Called by init_run:
     wfcinit      :      2.45s CPU      2.44s WALL (       1 calls)
     potinit      :      0.08s CPU      0.09s WALL (       1 calls)
     hinit0       :      0.56s CPU      0.58s WALL (       1 calls)

     Called by electrons:
     c_bands      :     36.99s CPU     35.81s WALL (       5 calls)
     sum_band     :      6.16s CPU      6.16s WALL (       5 calls)
     v_of_rho     :      0.27s CPU      0.30s WALL (       5 calls)
     newd         :      0.21s CPU      0.26s WALL (       5 calls)
     mix_rho      :      0.07s CPU      0.12s WALL (       5 calls)

     Called by c_bands:
     init_us_2    :      0.41s CPU      0.41s WALL (     319 calls)
     cegterg      :     35.60s CPU     34.41s WALL (     145 calls)

     Called by *egterg:
     cdiaghg      :      0.16s CPU      0.17s WALL (     799 calls)
     h_psi        :     31.09s CPU     31.33s WALL (     857 calls)
     s_psi        :      0.68s CPU      0.39s WALL (     857 calls)
     g_psi        :      0.48s CPU      0.49s WALL (     683 calls)

     Called by h_psi:
     h_psi:calbec :      0.62s CPU      0.62s WALL (     857 calls)
     vloc_psi     :     29.64s CPU     30.13s WALL (     857 calls)
     add_vuspsi   :      0.69s CPU      0.42s WALL (     857 calls)

     General routines
     calbec       :      0.80s CPU      0.81s WALL (    1002 calls)
     fft          :      0.11s CPU      0.11s WALL (      68 calls)
     ffts         :      0.03s CPU      0.03s WALL (      20 calls)
     fftw         :     30.46s CPU     30.96s WALL (   25348 calls)

     Parallel routines

     PWSCF        :     47.48s CPU     47.34s WALL


   This run was terminated on:  12:56:11   2Apr2025            

=------------------------------------------------------------------------------=
   JOB DONE.
=------------------------------------------------------------------------------=
