
     Program PWSCF v.6.6 starts on  2Apr2025 at 12:54:57 

     This program is part of the open-source Quantum ESPRESSO suite
     for quantum simulation of materials; please cite
         "P. Giannozzi et al., J. Phys.:Condens. Matter 21 395502 (2009);
         "P. Giannozzi et al., J. Phys.:Condens. Matter 29 465901 (2017);
          URL http://www.quantum-espresso.org", 
     in publications or presentations arising from this work. More details at
     http://www.quantum-espresso.org/quote

     Parallel version (MPI), running on     1 processors

     MPI processes distributed on     1 nodes
     Fft bands division:     nmany     =       1
     Reading input from Al.scf.100.666.in

     Current dimensions of program PWSCF are:
     Max number of different atomic species (ntypx) = 10
     Max number of k-points (npk) =  40000
     Max angular momentum in pseudopotentials (lmaxx) =  3

     Subspace diagonalization in iterative solution of the eigenvalue problem:
     a serial algorithm will be used


     G-vector sticks info
     --------------------
     sticks:   dense  smooth     PW     G-vecs:    dense   smooth      PW
     Sum        1417    1417    421                35749    35749    5601



     bravais-lattice index     =            2
     lattice parameter (alat)  =      10.2000  a.u.
     unit-cell volume          =     265.3020 (a.u.)^3
     number of atoms/cell      =            1
     number of atomic types    =            1
     number of electrons       =         3.00
     number of Kohn-Sham states=           12
     kinetic-energy cutoff     =     100.0000  Ry
     charge density cutoff     =     400.0000  Ry
     convergence threshold     =      1.0E-06
     mixing beta               =       0.7000
     number of iterations used =            8  plain     mixing
     Exchange-correlation= PBE
                           (   1   4   3   4   0   0   0)
     Non magnetic calculation with spin-orbit


     celldm(1)=  10.200000  celldm(2)=   0.000000  celldm(3)=   0.000000
     celldm(4)=   0.000000  celldm(5)=   0.000000  celldm(6)=   0.000000

     crystal axes: (cart. coord. in units of alat)
               a(1) = (  -0.500000   0.000000   0.500000 )  
               a(2) = (   0.000000   0.500000   0.500000 )  
               a(3) = (  -0.500000   0.500000   0.000000 )  

     reciprocal axes: (cart. coord. in units 2 pi/alat)
               b(1) = ( -1.000000 -1.000000  1.000000 )  
               b(2) = (  1.000000  1.000000  1.000000 )  
               b(3) = ( -1.000000  1.000000 -1.000000 )  


     PseudoPot. # 1 for Al read from file:
     ../pseudo/Al.rel-pbe-nl-rrkjus_psl.1.0.0.UPF
     MD5 check sum: 49f37f8fe9babba23f1e8de5949893df
     Pseudo is Ultrasoft + core correction, Zval =  3.0
     Generated using "atomic" code by A. Dal Corso v.6.3
     Using radial grid of 1135 points,  6 beta functions with: 
                l(1) =   0
                l(2) =   0
                l(3) =   1
                l(4) =   1
                l(5) =   1
                l(6) =   1
     Q(r) pseudized with 0 coefficients 


     atomic species   valence    mass     pseudopotential
        Al             3.00    26.98000     Al( 1.00)

     48 Sym. Ops., with inversion, found



   Cartesian axes

     site n.     atom                  positions (alat units)
         1           Al  tau(   1) = (   0.0000000   0.0000000   0.0000000  )

     number of k points=    16  Marzari-Vanderbilt smearing, width (Ry)=  0.0200
                       cart. coord. in units 2pi/alat
        k(    1) = (   0.0000000   0.0000000   0.0000000), wk =   0.0046296
        k(    2) = (  -0.1666667   0.1666667  -0.1666667), wk =   0.0370370
        k(    3) = (  -0.3333333   0.3333333  -0.3333333), wk =   0.0370370
        k(    4) = (   0.5000000  -0.5000000   0.5000000), wk =   0.0185185
        k(    5) = (   0.0000000   0.3333333   0.0000000), wk =   0.0277778
        k(    6) = (  -0.1666667   0.5000000  -0.1666667), wk =   0.1111111
        k(    7) = (   0.6666667  -0.3333333   0.6666667), wk =   0.1111111
        k(    8) = (   0.5000000  -0.1666667   0.5000000), wk =   0.1111111
        k(    9) = (   0.3333333   0.0000000   0.3333333), wk =   0.0555556
        k(   10) = (   0.0000000   0.6666667   0.0000000), wk =   0.0277778
        k(   11) = (   0.8333333  -0.1666667   0.8333333), wk =   0.1111111
        k(   12) = (   0.6666667  -0.0000000   0.6666667), wk =   0.0555556
        k(   13) = (   0.0000000  -1.0000000   0.0000000), wk =   0.0138889
        k(   14) = (   0.6666667  -0.3333333   1.0000000), wk =   0.1111111
        k(   15) = (   0.5000000  -0.1666667   0.8333333), wk =   0.1111111
        k(   16) = (  -0.3333333  -1.0000000   0.0000000), wk =   0.0555556

     Dense  grid:    35749 G-vectors     FFT dimensions: (  45,  45,  45)

     Estimated max dynamical RAM per process >     155.73 MB

     Initial potential from superposition of free atoms

     starting charge    2.99774, renormalised to    3.00000
     Starting wfcs are    8 randomized atomic wfcs +    4 random wfcs

     total cpu time spent up to now is        2.7 secs

     Self-consistent Calculation

     iteration #  1     ecut=   100.00 Ry     beta= 0.70
     Davidson diagonalization with overlap
     ethr =  1.00E-02,  avg # of iterations =  6.6

     Threshold (ethr) on eigenvalues was too large:
     Diagonalizing with lowered threshold

     Davidson diagonalization with overlap
     ethr =  1.47E-04,  avg # of iterations =  4.2

     total cpu time spent up to now is       13.6 secs

     total energy              =      -4.93855730 Ry
     estimated scf accuracy    <       0.00405043 Ry

     iteration #  2     ecut=   100.00 Ry     beta= 0.70
     Davidson diagonalization with overlap
     ethr =  1.35E-04,  avg # of iterations =  1.0

     total cpu time spent up to now is       17.5 secs

     total energy              =      -4.93865658 Ry
     estimated scf accuracy    <       0.00019687 Ry

     iteration #  3     ecut=   100.00 Ry     beta= 0.70
     Davidson diagonalization with overlap
     ethr =  6.56E-06,  avg # of iterations =  5.4

     total cpu time spent up to now is       22.3 secs

     total energy              =      -4.93868787 Ry
     estimated scf accuracy    <       0.00000127 Ry

     iteration #  4     ecut=   100.00 Ry     beta= 0.70
     Davidson diagonalization with overlap
     ethr =  4.23E-08,  avg # of iterations =  3.3

     total cpu time spent up to now is       26.7 secs

     End of self-consistent calculation

          k = 0.0000 0.0000 0.0000 (  4477 PWs)   bands (ev):

    -5.0856  -5.0856   7.4381   7.4381   7.4787   7.4787   7.4787   7.4787
    10.2726  10.2726  10.2726  10.2726

          k =-0.1667 0.1667-0.1667 (  4498 PWs)   bands (ev):

    -4.6857  -4.6857   4.9794   4.9794   7.0402   7.0402   7.0643   7.0643
     9.7877   9.7877  10.8994  10.9015

          k =-0.3333 0.3333-0.3333 (  4462 PWs)   bands (ev):

    -3.5267  -3.5267   1.6975   1.6975   6.5761   6.5761   6.5994   6.5995
     9.2231   9.2231  10.2067  10.2074

          k = 0.5000-0.5000 0.5000 (  4476 PWs)   bands (ev):

    -2.2644  -2.2644  -0.3131  -0.3131   6.4300   6.4300   6.4537   6.4537
     9.0641   9.0641   9.6997   9.6998

          k = 0.0000 0.3333 0.0000 (  4500 PWs)   bands (ev):

    -4.5518  -4.5518   5.8848   5.8848   6.1062   6.1062   6.1250   6.1251
     8.5077   8.5078  10.1731  10.1731

          k =-0.1667 0.5000-0.1667 (  4489 PWs)   bands (ev):

    -3.6389  -3.6389   2.9788   2.9788   5.4076   5.4076   5.5408   5.5408
     8.2883   8.2883   9.9220   9.9220

          k = 0.6667-0.3333 0.6667 (  4472 PWs)   bands (ev):

    -2.1840  -2.1840   0.3526   0.3526   4.4682   4.4682   5.5929   5.5929
     8.0745   8.0745  11.1223  11.1229

          k = 0.5000-0.1667 0.5000 (  4478 PWs)   bands (ev):

    -2.6780  -2.6780   1.0959   1.0959   4.0157   4.0157   6.2333   6.2333
     8.8157   8.8157  10.8566  10.8591

          k = 0.3333 0.0000 0.3333 (  4495 PWs)   bands (ev):

    -4.0286  -4.0286   3.8557   3.8557   4.4775   4.4775   7.1159   7.1160
    10.2963  10.2965  10.7517  10.7522

          k = 0.0000 0.6667 0.0000 (  4512 PWs)   bands (ev):

    -2.9880  -2.9880   2.9839   2.9839   4.7449   4.7449   4.7622   4.7622
     6.9147   6.9147   7.1254   7.1254

          k = 0.8333-0.1667 0.8333 (  4478 PWs)   bands (ev):

    -1.7024  -1.7024   1.3830   1.3830   2.7826   2.7826   4.6241   4.6241
     6.7406   6.7406   8.8887   8.8888

          k = 0.6667-0.0000 0.6667 (  4466 PWs)   bands (ev):

    -1.3780  -1.3780   1.3213   1.3213   1.4516   1.4516   5.1772   5.1772
     7.3667   7.3667  12.1185  12.1187

          k = 0.0000-1.0000 0.0000 (  4456 PWs)   bands (ev):

    -1.0499  -1.0499   0.4006   0.4006   4.2654   4.2654   4.2823   4.2823
     6.2291   6.2291   6.3681   6.3681

          k = 0.6667-0.3333 1.0000 (  4491 PWs)   bands (ev):

    -2.5197  -2.5197   2.2129   2.2129   2.9855   2.9855   4.6013   4.6013
     9.2560   9.2561   9.6636   9.6637

          k = 0.5000-0.1667 0.8333 (  4456 PWs)   bands (ev):

    -1.3520  -1.3520   0.7020   0.7020   2.6479   2.6479   3.8832   3.8832
     9.3370   9.3370  10.4629  10.4630

          k =-0.3333-1.0000 0.0000 (  4466 PWs)   bands (ev):

    -0.8555  -0.8555   0.9272   0.9272   2.4712   2.4712   2.8856   2.8856
     8.7795   8.7796   9.1782   9.1782

     the Fermi energy is     1.3487 ev

!    total energy              =      -4.93868891 Ry
     estimated scf accuracy    <       0.00000006 Ry
     smearing contrib. (-TS)   =      -0.00050356 Ry
     internal energy E=F+TS    =      -4.93818534 Ry

     The total energy is F=E-TS. E is the sum of the following terms:
     one-electron contribution =       1.29249374 Ry
     hartree contribution      =       0.08431697 Ry
     xc contribution           =      -2.26952952 Ry
     ewald contribution        =      -4.04546654 Ry

     convergence has been achieved in   4 iterations

     Writing output data file ./temp/Al.save/

     init_run     :      2.02s CPU      2.04s WALL (       1 calls)
     electrons    :     24.35s CPU     23.92s WALL (       1 calls)

     Called by init_run:
     wfcinit      :      1.32s CPU      1.32s WALL (       1 calls)
     potinit      :      0.08s CPU      0.08s WALL (       1 calls)
     hinit0       :      0.55s CPU      0.55s WALL (       1 calls)

     Called by electrons:
     c_bands      :     19.95s CPU     19.40s WALL (       5 calls)
     sum_band     :      3.90s CPU      3.89s WALL (       5 calls)
     v_of_rho     :      0.28s CPU      0.31s WALL (       5 calls)
     newd         :      0.23s CPU      0.29s WALL (       5 calls)
     mix_rho      :      0.07s CPU      0.12s WALL (       5 calls)

     Called by c_bands:
     init_us_2    :      0.23s CPU      0.23s WALL (     176 calls)
     cegterg      :     19.19s CPU     18.63s WALL (      80 calls)

     Called by *egterg:
     cdiaghg      :      0.08s CPU      0.08s WALL (     392 calls)
     h_psi        :     16.94s CPU     17.13s WALL (     424 calls)
     s_psi        :      0.38s CPU      0.21s WALL (     424 calls)
     g_psi        :      0.24s CPU      0.25s WALL (     328 calls)

     Called by h_psi:
     h_psi:calbec :      0.33s CPU      0.34s WALL (     424 calls)
     vloc_psi     :     16.14s CPU     16.48s WALL (     424 calls)
     add_vuspsi   :      0.40s CPU      0.23s WALL (     424 calls)

     General routines
     calbec       :      0.44s CPU      0.45s WALL (     504 calls)
     fft          :      0.11s CPU      0.12s WALL (      68 calls)
     ffts         :      0.04s CPU      0.04s WALL (      20 calls)
     fftw         :     16.87s CPU     17.22s WALL (   13500 calls)

     Parallel routines

     PWSCF        :     27.00s CPU     26.98s WALL


   This run was terminated on:  12:55:24   2Apr2025            

=------------------------------------------------------------------------------=
   JOB DONE.
=------------------------------------------------------------------------------=
