
     Program BANDS v.6.6 starts on 20Jul2025 at 12:25:19 

     This program is part of the open-source Quantum ESPRESSO suite
     for quantum simulation of materials; please cite
         "P. Giannozzi et al., J. Phys.:Condens. Matter 21 395502 (2009);
         "P. Giannozzi et al., J. Phys.:Condens. Matter 29 465901 (2017);
          URL http://www.quantum-espresso.org", 
     in publications or presentations arising from this work. More details at
     http://www.quantum-espresso.org/quote

     Parallel version (MPI), running on     1 processors

     MPI processes distributed on     1 nodes
     Fft bands division:     nmany     =       1

     Reading xml data from directory:

     ./outdir/si.save/
     file Si.pbe-n-kjpaw_psl.1.0.0.UPF: wavefunction(s)  3S 3P renormalized

     IMPORTANT: XC functional enforced from input :
     Exchange-correlation= PBE
                           (   1   4   3   4   0   0   0)
     Any further DFT definition will be discarded
     Please, verify this is what you really want


     G-vector sticks info
     --------------------
     sticks:   dense  smooth     PW     G-vecs:    dense   smooth      PW
     Sum        1189     595    187                27317     9577    1639

     Reading collected, re-writing distributed wavefunctions
     high-symmetry point:  0.5000 0.5000 0.5000   x coordinate   0.0000
     high-symmetry point:  0.0000 0.0000 0.0000   x coordinate   0.8660
     high-symmetry point:  1.0000 0.0000 0.0000   x coordinate   1.8660
     high-symmetry point:  1.0000 0.2500 0.2500   x coordinate   2.2196
     high-symmetry point:  0.0000 0.0000 0.0000   x coordinate   3.2802

     Plottable bands (eV) written to file si.bands.dat.gnu
     Bands written to file si.bands.dat

 **************************************************************************

                    xk=(   0.50000,   0.50000,   0.50000  )

     zone border point and non-symmorphic group 
     symmetry decomposition not available

 **************************************************************************

 **************************************************************************

                    xk=(   0.47500,   0.47500,   0.47500  )

     point group C_3v (3m)  
     there are  3 classes
     the character table:

       E     2C3   3s_v 
A_1    1.00  1.00  1.00
A_2    1.00  1.00 -1.00
E      2.00 -1.00  0.00

     the symmetry operations in each class and the name of the first element:

     E        1
                                                                 
     2C3      2    3
                                                                 
     3s_v     4    5    6
                                                                 

     Band symmetry, C_3v (3m)   point group:

     e(  1 -  1) =     -3.71970  eV     1   --> A_1  L_1       
     e(  2 -  2) =     -0.96525  eV     1   --> A_1  L_1       
     e(  3 -  4) =      4.60455  eV     2   --> E    L_3       
     e(  5 -  5) =      7.15075  eV     1   --> A_1  L_1       
     e(  6 -  7) =      9.12266  eV     2   --> E    L_3       
     e(  8 -  8) =     13.44456  eV     1   --> A_1  L_1       

 **************************************************************************

 **************************************************************************

                    xk=(   0.45000,   0.45000,   0.45000  )

     Band symmetry, C_3v (3m)   point group:

     e(  1 -  1) =     -3.81173  eV     1   --> A_1  L_1       
     e(  2 -  2) =     -0.82828  eV     1   --> A_1  L_1       
     e(  3 -  4) =      4.61774  eV     2   --> E    L_3       
     e(  5 -  5) =      7.16623  eV     1   --> A_1  L_1       
     e(  6 -  7) =      9.13605  eV     2   --> E    L_3       
     e(  8 -  8) =     13.46462  eV     1   --> A_1  L_1       

 **************************************************************************

 **************************************************************************

                    xk=(   0.42500,   0.42500,   0.42500  )

     Band symmetry, C_3v (3m)   point group:

     e(  1 -  1) =     -3.94740  eV     1   --> A_1  L_1       
     e(  2 -  2) =     -0.61781  eV     1   --> A_1  L_1       
     e(  3 -  4) =      4.63971  eV     2   --> E    L_3       
     e(  5 -  5) =      7.19196  eV     1   --> A_1  L_1       
     e(  6 -  7) =      9.15711  eV     2   --> E    L_3       
     e(  8 -  8) =     13.49466  eV     1   --> A_1  L_1       

 **************************************************************************

 **************************************************************************

                    xk=(   0.40000,   0.40000,   0.40000  )

     Band symmetry, C_3v (3m)   point group:

     e(  1 -  1) =     -4.11023  eV     1   --> A_1  L_1       
     e(  2 -  2) =     -0.35053  eV     1   --> A_1  L_1       
     e(  3 -  4) =      4.67041  eV     2   --> E    L_3       
     e(  5 -  5) =      7.22781  eV     1   --> A_1  L_1       
     e(  6 -  7) =      9.18387  eV     2   --> E    L_3       
     e(  8 -  8) =     13.52757  eV     1   --> A_1  L_1       

 **************************************************************************

 **************************************************************************

                    xk=(   0.37500,   0.37500,   0.37500  )

     Band symmetry, C_3v (3m)   point group:

     e(  1 -  1) =     -4.28701  eV     1   --> A_1  L_1       
     e(  2 -  2) =     -0.03989  eV     1   --> A_1  L_1       
     e(  3 -  4) =      4.70975  eV     2   --> E    L_3       
     e(  5 -  5) =      7.27360  eV     1   --> A_1  L_1       
     e(  6 -  7) =      9.21340  eV     2   --> E    L_3       
     e(  8 -  8) =     13.54727  eV     1   --> A_1  L_1       

 **************************************************************************

 **************************************************************************

                    xk=(   0.35000,   0.35000,   0.35000  )

     Band symmetry, C_3v (3m)   point group:

     e(  1 -  1) =     -4.46841  eV     1   --> A_1  L_1       
     e(  2 -  2) =      0.30443  eV     1   --> A_1  L_1       
     e(  3 -  4) =      4.75763  eV     2   --> E    L_3       
     e(  5 -  5) =      7.32909  eV     1   --> A_1  L_1       
     e(  6 -  7) =      9.24173  eV     2   --> E    L_3       
     e(  8 -  8) =     13.51777  eV     1   --> A_1  L_1       

 **************************************************************************

 **************************************************************************

                    xk=(   0.32500,   0.32500,   0.32500  )

     Band symmetry, C_3v (3m)   point group:

     e(  1 -  1) =     -4.64814  eV     1   --> A_1  L_1       
     e(  2 -  2) =      0.67569  eV     1   --> A_1  L_1       
     e(  3 -  4) =      4.81384  eV     2   --> E    L_3       
     e(  5 -  5) =      7.39388  eV     1   --> A_1  L_1       
     e(  6 -  7) =      9.26374  eV     2   --> E    L_3       
     e(  8 -  8) =     13.37913  eV     1   --> A_1  L_1       

 **************************************************************************

 **************************************************************************

                    xk=(   0.30000,   0.30000,   0.30000  )

     Band symmetry, C_3v (3m)   point group:

     e(  1 -  1) =     -4.82199  eV     1   --> A_1  L_1       
     e(  2 -  2) =      1.06907  eV     1   --> A_1  L_1       
     e(  3 -  4) =      4.87810  eV     2   --> E    L_3       
     e(  5 -  5) =      7.46748  eV     1   --> A_1  L_1       
     e(  6 -  7) =      9.27338  eV     2   --> E    L_3       
     e(  8 -  8) =     13.10457  eV     1   --> A_1  L_1       

 **************************************************************************

 **************************************************************************

                    xk=(   0.27500,   0.27500,   0.27500  )

     Band symmetry, C_3v (3m)   point group:

     e(  1 -  1) =     -4.98707  eV     1   --> A_1  L_1       
     e(  2 -  2) =      1.48092  eV     1   --> A_1  L_1       
     e(  3 -  4) =      4.94998  eV     2   --> E    L_3       
     e(  5 -  5) =      7.54916  eV     1   --> A_1  L_1       
     e(  6 -  7) =      9.26422  eV     2   --> E    L_3       
     e(  8 -  8) =     12.73840  eV     1   --> A_1  L_1       

 **************************************************************************

 **************************************************************************

                    xk=(   0.25000,   0.25000,   0.25000  )

     Band symmetry, C_3v (3m)   point group:

     e(  1 -  1) =     -5.14142  eV     1   --> A_1  L_1       
     e(  2 -  2) =      1.90828  eV     1   --> A_1  L_1       
     e(  3 -  4) =      5.02888  eV     2   --> E    L_3       
     e(  5 -  5) =      7.63800  eV     1   --> A_1  L_1       
     e(  6 -  7) =      9.23066  eV     2   --> E    L_3       
     e(  8 -  8) =     12.32739  eV     1   --> A_1  L_1       

 **************************************************************************

 **************************************************************************

                    xk=(   0.22500,   0.22500,   0.22500  )

     Band symmetry, C_3v (3m)   point group:

     e(  1 -  1) =     -5.28362  eV     1   --> A_1  L_1       
     e(  2 -  2) =      2.34843  eV     1   --> A_1  L_1       
     e(  3 -  4) =      5.11394  eV     2   --> E    L_3       
     e(  5 -  5) =      7.73274  eV     1   --> A_1  L_1       
     e(  6 -  7) =      9.16946  eV     2   --> E    L_3       
     e(  8 -  8) =     11.89475  eV     1   --> A_1  L_1       

 **************************************************************************

 **************************************************************************

                    xk=(   0.20000,   0.20000,   0.20000  )

     Band symmetry, C_3v (3m)   point group:

     e(  1 -  1) =     -5.41263  eV     1   --> A_1  L_1       
     e(  2 -  2) =      2.79857  eV     1   --> A_1  L_1       
     e(  3 -  4) =      5.20399  eV     2   --> E    L_3       
     e(  5 -  5) =      7.83168  eV     1   --> A_1  L_1       
     e(  6 -  7) =      9.08111  eV     2   --> E    L_3       
     e(  8 -  8) =     11.45082  eV     1   --> A_1  L_1       

 **************************************************************************

 **************************************************************************

                    xk=(   0.17500,   0.17500,   0.17500  )

     Band symmetry, C_3v (3m)   point group:

     e(  1 -  1) =     -5.52772  eV     1   --> A_1  L_1       
     e(  2 -  2) =      3.25554  eV     1   --> A_1  L_1       
     e(  3 -  4) =      5.29738  eV     2   --> E    L_3       
     e(  5 -  5) =      7.93262  eV     1   --> A_1  L_1       
     e(  6 -  7) =      8.97009  eV     2   --> E    L_3       
     e(  8 -  8) =     11.00103  eV     1   --> A_1  L_1       

 **************************************************************************

 **************************************************************************

                    xk=(   0.15000,   0.15000,   0.15000  )

     Band symmetry, C_3v (3m)   point group:

     e(  1 -  1) =     -5.62833  eV     1   --> A_1  L_1       
     e(  2 -  2) =      3.71528  eV     1   --> A_1  L_1       
     e(  3 -  4) =      5.39191  eV     2   --> E    L_3       
     e(  5 -  5) =      8.03266  eV     1   --> A_1  L_1       
     e(  6 -  7) =      8.84401  eV     2   --> E    L_3       
     e(  8 -  8) =     10.54973  eV     1   --> A_1  L_1       

 **************************************************************************

 **************************************************************************

                    xk=(   0.12500,   0.12500,   0.12500  )

     Band symmetry, C_3v (3m)   point group:

     e(  1 -  1) =     -5.71404  eV     1   --> A_1  L_1       
     e(  2 -  2) =      4.17201  eV     1   --> A_1  L_1       
     e(  3 -  4) =      5.48460  eV     2   --> E    L_3       
     e(  5 -  5) =      8.12802  eV     1   --> A_1  L_1       
     e(  6 -  7) =      8.71227  eV     2   --> E    L_3       
     e(  8 -  8) =     10.10238  eV     1   --> A_1  L_1       

 **************************************************************************

 **************************************************************************

                    xk=(   0.10000,   0.10000,   0.10000  )

     Band symmetry, C_3v (3m)   point group:

     e(  1 -  1) =     -5.78453  eV     1   --> A_1  L_1       
     e(  2 -  2) =      4.61683  eV     1   --> A_1  L_1       
     e(  3 -  4) =      5.57160  eV     2   --> E    L_3       
     e(  5 -  5) =      8.21373  eV     1   --> A_1  L_1       
     e(  6 -  7) =      8.58488  eV     2   --> E    L_3       
     e(  8 -  8) =      9.66806  eV     1   --> A_1  L_1       

 **************************************************************************

 **************************************************************************

                    xk=(   0.07500,   0.07500,   0.07500  )

     Band symmetry, C_3v (3m)   point group:

     e(  1 -  1) =     -5.83959  eV     1   --> A_1  L_1       
     e(  2 -  2) =      5.03468  eV     1   --> A_1  L_1       
     e(  3 -  4) =      5.64812  eV     2   --> E    L_3       
     e(  5 -  5) =      8.28296  eV     1   --> A_1  L_1       
     e(  6 -  7) =      8.47180  eV     2   --> E    L_3       
     e(  8 -  8) =      9.26347  eV     1   --> A_1  L_1       

 **************************************************************************

 **************************************************************************

                    xk=(   0.05000,   0.05000,   0.05000  )

     Band symmetry, C_3v (3m)   point group:

     e(  1 -  1) =     -5.87902  eV     1   --> A_1  L_1       
     e(  2 -  2) =      5.39869  eV     1   --> A_1  L_1       
     e(  3 -  4) =      5.70868  eV     2   --> E    L_3       
     e(  5 -  5) =      8.32477  eV     1   --> A_1  L_1       
     e(  6 -  7) =      8.38246  eV     2   --> E    L_3       
     e(  8 -  8) =      8.92131  eV     1   --> A_1  L_1       

 **************************************************************************

 **************************************************************************

                    xk=(   0.02500,   0.02500,   0.02500  )

     Band symmetry, C_3v (3m)   point group:

     e(  1 -  1) =     -5.90272  eV     1   --> A_1  L_1       
     e(  2 -  2) =      5.66203  eV     1   --> A_1  L_1       
     e(  3 -  4) =      5.74784  eV     2   --> E    L_3       
     e(  5 -  5) =      8.32375  eV     1   --> A_1  L_1       
     e(  6 -  7) =      8.32499  eV     2   --> E    L_3       
     e(  8 -  8) =      8.69929  eV     1   --> A_1  L_1       

 **************************************************************************

 **************************************************************************

                    xk=(   0.00000,   0.00000,   0.00000  )

     point group O_h (m-3m) 
     there are 10 classes
     the character table:

       E     8C3   3C2   6C4   6C2'  i     8S6   3s_h  6S4   6s_d 
A_1g   1.00  1.00  1.00  1.00  1.00  1.00  1.00  1.00  1.00  1.00
A_2g   1.00  1.00  1.00 -1.00 -1.00  1.00  1.00  1.00 -1.00 -1.00
E_g    2.00 -1.00  2.00  0.00  0.00  2.00 -1.00  2.00  0.00  0.00
T_1g   3.00  0.00 -1.00  1.00 -1.00  3.00  0.00 -1.00  1.00 -1.00
T_2g   3.00  0.00 -1.00 -1.00  1.00  3.00  0.00 -1.00 -1.00  1.00
A_1u   1.00  1.00  1.00  1.00  1.00 -1.00 -1.00 -1.00 -1.00 -1.00
A_2u   1.00  1.00  1.00 -1.00 -1.00 -1.00 -1.00 -1.00  1.00  1.00
E_u    2.00 -1.00  2.00  0.00  0.00 -2.00  1.00 -2.00  0.00  0.00
T_1u   3.00  0.00 -1.00  1.00 -1.00 -3.00  0.00  1.00 -1.00  1.00
T_2u   3.00  0.00 -1.00 -1.00  1.00 -3.00  0.00  1.00  1.00 -1.00

     the symmetry operations in each class and the name of the first element:

     E        1
                                                                 
     8C3     17   19   20   18   24   21   22   23
                                                                 
     3C2      2    4    3
                                                                 
     6C4      7    8   15   16   12   11
                                                                 
     6C2'     5    6   14   13   10    9
                                                                 
     i       25
                                                                 
     8S6     41   43   44   42   48   45   46   47
                                                                 
     3s_h    26   28   27
                                                                 
     6S4     31   32   39   40   36   35
                                                                 
     6s_d    29   30   38   37   34   33
                                                                 

     Band symmetry, O_h (m-3m)  point group:

     e(  1 -  1) =     -5.91063  eV     1   --> A_1g G_1   G_1+
     e(  2 -  4) =      5.76142  eV     3   --> T_2g G_25' G_5+
     e(  5 -  7) =      8.30514  eV     3   --> T_1u G_15  G_4-
     e(  8 -  8) =      8.63233  eV     1   --> A_2u G_2'  G_2-

 **************************************************************************

 **************************************************************************

                    xk=(   0.03333,   0.00000,   0.00000  )

     point group C_4v (4mm) 
     there are  5 classes
     the character table:

       E     2C4   C2    2s_v  2s_d 
A_1    1.00  1.00  1.00  1.00  1.00
A_2    1.00  1.00  1.00 -1.00 -1.00
B_1    1.00 -1.00  1.00  1.00 -1.00
B_2    1.00 -1.00  1.00 -1.00  1.00
E      2.00  0.00 -2.00  0.00  0.00

     the symmetry operations in each class and the name of the first element:

     E        1
                                                                 
     2C4      3    4
                                                                 
     C2       2
                                                                 
     2s_v     5    6
                                                                 
     2s_d     7    8
                                                                 

     Band symmetry, C_4v (4mm)  point group:

     e(  1 -  1) =     -5.90594  eV     1   --> A_1  G_1 D_1   
     e(  2 -  2) =      5.72483  eV     1   --> B_2  G_4 D_2'  
     e(  3 -  4) =      5.74149  eV     2   --> E    G_5 D_5   
     e(  5 -  5) =      8.29349  eV     1   --> A_1  G_1 D_1   
     e(  6 -  7) =      8.33086  eV     2   --> E    G_5 D_5   
     e(  8 -  8) =      8.66824  eV     1   --> B_2  G_4 D_2'  

 **************************************************************************

 **************************************************************************

                    xk=(   0.06667,   0.00000,   0.00000  )

     Band symmetry, C_4v (4mm)  point group:

     e(  1 -  1) =     -5.89188  eV     1   --> A_1  G_1 D_1   
     e(  2 -  2) =      5.62035  eV     1   --> B_2  G_4 D_2'  
     e(  3 -  4) =      5.68410  eV     2   --> E    G_5 D_5   
     e(  5 -  5) =      8.25919  eV     1   --> A_1  G_1 D_1   
     e(  6 -  7) =      8.40560  eV     2   --> E    G_5 D_5   
     e(  8 -  8) =      8.77019  eV     1   --> B_2  G_4 D_2'  

 **************************************************************************

 **************************************************************************

                    xk=(   0.10000,   0.00000,   0.00000  )

     Band symmetry, C_4v (4mm)  point group:

     e(  1 -  1) =     -5.86846  eV     1   --> A_1  G_1 D_1   
     e(  2 -  2) =      5.46070  eV     1   --> B_2  G_4 D_2'  
     e(  3 -  4) =      5.59533  eV     2   --> E    G_5 D_5   
     e(  5 -  5) =      8.20399  eV     1   --> A_1  G_1 D_1   
     e(  6 -  7) =      8.52326  eV     2   --> E    G_5 D_5   
     e(  8 -  8) =      8.92384  eV     1   --> B_2  G_4 D_2'  

 **************************************************************************

 **************************************************************************

                    xk=(   0.13333,   0.00000,   0.00000  )

     Band symmetry, C_4v (4mm)  point group:

     e(  1 -  1) =     -5.83569  eV     1   --> A_1  G_1 D_1   
     e(  2 -  2) =      5.26015  eV     1   --> B_2  G_4 D_2'  
     e(  3 -  4) =      5.48273  eV     2   --> E    G_5 D_5   
     e(  5 -  5) =      8.13056  eV     1   --> A_1  G_1 D_1   
     e(  6 -  7) =      8.67621  eV     2   --> E    G_5 D_5   
     e(  8 -  8) =      9.11180  eV     1   --> B_2  G_4 D_2'  

 **************************************************************************

 **************************************************************************

                    xk=(   0.16667,   0.00000,   0.00000  )

     Band symmetry, C_4v (4mm)  point group:

     e(  1 -  1) =     -5.79359  eV     1   --> A_1  G_1 D_1   
     e(  2 -  2) =      5.03074  eV     1   --> B_2  G_4 D_2'  
     e(  3 -  4) =      5.35347  eV     2   --> E    G_5 D_5   
     e(  5 -  5) =      8.04202  eV     1   --> A_1  G_1 D_1   
     e(  6 -  7) =      8.85721  eV     2   --> E    G_5 D_5   
     e(  8 -  8) =      9.31664  eV     1   --> B_2  G_4 D_2'  

 **************************************************************************

 **************************************************************************

                    xk=(   0.20000,   0.00000,   0.00000  )

     Band symmetry, C_4v (4mm)  point group:

     e(  1 -  1) =     -5.74219  eV     1   --> A_1  G_1 D_1   
     e(  2 -  2) =      4.78137  eV     1   --> B_2  G_4 D_2'  
     e(  3 -  4) =      5.21350  eV     2   --> E    G_5 D_5   
     e(  5 -  5) =      7.94165  eV     1   --> A_1  G_1 D_1   
     e(  6 -  7) =      9.06022  eV     2   --> E    G_5 D_5   
     e(  8 -  8) =      9.52034  eV     1   --> B_2  G_4 D_2'  

 **************************************************************************

 **************************************************************************

                    xk=(   0.23333,   0.00000,   0.00000  )

     Band symmetry, C_4v (4mm)  point group:

     e(  1 -  1) =     -5.68153  eV     1   --> A_1  G_1 D_1   
     e(  2 -  2) =      4.51826  eV     1   --> B_2  G_4 D_2'  
     e(  3 -  4) =      5.06738  eV     2   --> E    G_5 D_5   
     e(  5 -  5) =      7.83265  eV     1   --> A_1  G_1 D_1   
     e(  6 -  7) =      9.28054  eV     2   --> E    G_5 D_5   
     e(  8 -  8) =      9.70179  eV     1   --> B_2  G_4 D_2'  

 **************************************************************************

 **************************************************************************

                    xk=(   0.26667,   0.00000,   0.00000  )

     Band symmetry, C_4v (4mm)  point group:

     e(  1 -  1) =     -5.61163  eV     1   --> A_1  G_1 D_1   
     e(  2 -  2) =      4.24563  eV     1   --> B_2  G_4 D_2'  
     e(  3 -  4) =      4.91853  eV     2   --> E    G_5 D_5   
     e(  5 -  5) =      7.71794  eV     1   --> A_1  G_1 D_1   
     e(  6 -  7) =      9.51463  eV     2   --> E    G_5 D_5   
     e(  8 -  8) =      9.83473  eV     1   --> B_2  G_4 D_2'  

 **************************************************************************

 **************************************************************************

                    xk=(   0.30000,   0.00000,   0.00000  )

     Band symmetry, C_4v (4mm)  point group:

     e(  1 -  1) =     -5.53255  eV     1   --> A_1  G_1 D_1   
     e(  2 -  2) =      3.96637  eV     1   --> B_2  G_4 D_2'  
     e(  3 -  4) =      4.76949  eV     2   --> E    G_5 D_5   
     e(  5 -  5) =      7.60009  eV     1   --> A_1  G_1 D_1   
     e(  6 -  7) =      9.75984  eV     2   --> E    G_5 D_5   
     e(  8 -  8) =      9.89126  eV     1   --> B_2  G_4 D_2'  

 **************************************************************************

 **************************************************************************

                    xk=(   0.33333,   0.00000,   0.00000  )

     Band symmetry, C_4v (4mm)  point group:

     e(  1 -  1) =     -5.44434  eV     1   --> A_1  G_1 D_1   
     e(  2 -  2) =      3.68250  eV     1   --> B_2  G_4 D_2'  
     e(  3 -  4) =      4.62215  eV     2   --> E    G_5 D_5   
     e(  5 -  5) =      7.48135  eV     1   --> A_1  G_1 D_1   
     e(  6 -  6) =      9.85608  eV     1   --> B_2  G_4 D_2'  
     e(  7 -  8) =     10.01412  eV     2   --> E    G_5 D_5   

 **************************************************************************

 **************************************************************************

                    xk=(   0.36667,   0.00000,   0.00000  )

     Band symmetry, C_4v (4mm)  point group:

     e(  1 -  1) =     -5.34704  eV     1   --> A_1  G_1 D_1   
     e(  2 -  2) =      3.39546  eV     1   --> B_2  G_4 D_2'  
     e(  3 -  4) =      4.47792  eV     2   --> E    G_5 D_5   
     e(  5 -  5) =      7.36361  eV     1   --> A_1  G_1 D_1   
     e(  6 -  6) =      9.73832  eV     1   --> B_2  G_4 D_2'  
     e(  7 -  8) =     10.27594  eV     2   --> E    G_5 D_5   

 **************************************************************************

 **************************************************************************

                    xk=(   0.40000,   0.00000,   0.00000  )

     Band symmetry, C_4v (4mm)  point group:

     e(  1 -  1) =     -5.24076  eV     1   --> A_1  G_1 D_1   
     e(  2 -  2) =      3.10623  eV     1   --> B_2  G_4 D_2'  
     e(  3 -  4) =      4.33790  eV     2   --> E    G_5 D_5   
     e(  5 -  5) =      7.24850  eV     1   --> A_1  G_1 D_1   
     e(  6 -  6) =      9.56258  eV     1   --> B_2  G_4 D_2'  
     e(  7 -  8) =     10.54410  eV     2   --> E    G_5 D_5   

 **************************************************************************

 **************************************************************************

                    xk=(   0.43333,   0.00000,   0.00000  )

     Band symmetry, C_4v (4mm)  point group:

     e(  1 -  1) =     -5.12555  eV     1   --> A_1  G_1 D_1   
     e(  2 -  2) =      2.81561  eV     1   --> B_2  G_4 D_2'  
     e(  3 -  4) =      4.20291  eV     2   --> E    G_5 D_5   
     e(  5 -  5) =      7.13738  eV     1   --> A_1  G_1 D_1   
     e(  6 -  6) =      9.35285  eV     1   --> B_2  G_4 D_2'  
     e(  7 -  8) =     10.81764  eV     2   --> E    G_5 D_5   

 **************************************************************************

 **************************************************************************

                    xk=(   0.46667,   0.00000,   0.00000  )

     Band symmetry, C_4v (4mm)  point group:

     e(  1 -  1) =     -5.00149  eV     1   --> A_1  G_1 D_1   
     e(  2 -  2) =      2.52420  eV     1   --> B_2  G_4 D_2'  
     e(  3 -  4) =      4.07363  eV     2   --> E    G_5 D_5   
     e(  5 -  5) =      7.03139  eV     1   --> A_1  G_1 D_1   
     e(  6 -  6) =      9.12619  eV     1   --> B_2  G_4 D_2'  
     e(  7 -  8) =     11.09581  eV     2   --> E    G_5 D_5   

 **************************************************************************

 **************************************************************************

                    xk=(   0.50000,   0.00000,   0.00000  )

     Band symmetry, C_4v (4mm)  point group:

     e(  1 -  1) =     -4.86866  eV     1   --> A_1  G_1 D_1   
     e(  2 -  2) =      2.23246  eV     1   --> B_2  G_4 D_2'  
     e(  3 -  4) =      3.95056  eV     2   --> E    G_5 D_5   
     e(  5 -  5) =      6.93151  eV     1   --> A_1  G_1 D_1   
     e(  6 -  6) =      8.89351  eV     1   --> B_2  G_4 D_2'  
     e(  7 -  8) =     11.37803  eV     2   --> E    G_5 D_5   

 **************************************************************************

 **************************************************************************

                    xk=(   0.53333,   0.00000,   0.00000  )

     Band symmetry, C_4v (4mm)  point group:

     e(  1 -  1) =     -4.72720  eV     1   --> A_1  G_1 D_1   
     e(  2 -  2) =      1.94083  eV     1   --> B_2  G_4 D_2'  
     e(  3 -  4) =      3.83413  eV     2   --> E    G_5 D_5   
     e(  5 -  5) =      6.83857  eV     1   --> A_1  G_1 D_1   
     e(  6 -  6) =      8.66168  eV     1   --> B_2  G_4 D_2'  
     e(  7 -  8) =     11.66380  eV     2   --> E    G_5 D_5   

 **************************************************************************

 **************************************************************************

                    xk=(   0.56667,   0.00000,   0.00000  )

     Band symmetry, C_4v (4mm)  point group:

     e(  1 -  1) =     -4.57720  eV     1   --> A_1  G_1 D_1   
     e(  2 -  2) =      1.64968  eV     1   --> B_2  G_4 D_2'  
     e(  3 -  4) =      3.72470  eV     2   --> E    G_5 D_5   
     e(  5 -  5) =      6.75330  eV     1   --> A_1  G_1 D_1   
     e(  6 -  6) =      8.43508  eV     1   --> B_2  G_4 D_2'  
     e(  7 -  8) =     11.95275  eV     2   --> E    G_5 D_5   

 **************************************************************************

 **************************************************************************

                    xk=(   0.60000,   0.00000,   0.00000  )

     Band symmetry, C_4v (4mm)  point group:

     e(  1 -  1) =     -4.41876  eV     1   --> A_1  G_1 D_1   
     e(  2 -  2) =      1.35941  eV     1   --> B_2  G_4 D_2'  
     e(  3 -  4) =      3.62253  eV     2   --> E    G_5 D_5   
     e(  5 -  5) =      6.67631  eV     1   --> A_1  G_1 D_1   
     e(  6 -  6) =      8.21658  eV     1   --> B_2  G_4 D_2'  
     e(  7 -  8) =     12.24455  eV     2   --> E    G_5 D_5   

 **************************************************************************

 **************************************************************************

                    xk=(   0.63333,   0.00000,   0.00000  )

     Band symmetry, C_4v (4mm)  point group:

     e(  1 -  1) =     -4.25204  eV     1   --> A_1  G_1 D_1   
     e(  2 -  2) =      1.07035  eV     1   --> B_2  G_4 D_2'  
     e(  3 -  4) =      3.52788  eV     2   --> E    G_5 D_5   
     e(  5 -  5) =      6.60817  eV     1   --> A_1  G_1 D_1   
     e(  6 -  6) =      8.00810  eV     1   --> B_2  G_4 D_2'  
     e(  7 -  8) =     12.53894  eV     2   --> E    G_5 D_5   

 **************************************************************************

 **************************************************************************

                    xk=(   0.66667,   0.00000,   0.00000  )

     Band symmetry, C_4v (4mm)  point group:

     e(  1 -  1) =     -4.07718  eV     1   --> A_1  G_1 D_1   
     e(  2 -  2) =      0.78289  eV     1   --> B_2  G_4 D_2'  
     e(  3 -  4) =      3.44093  eV     2   --> E    G_5 D_5   
     e(  5 -  5) =      6.54934  eV     1   --> A_1  G_1 D_1   
     e(  6 -  6) =      7.81092  eV     1   --> B_2  G_4 D_2'  
     e(  7 -  8) =     12.83566  eV     2   --> E    G_5 D_5   

 **************************************************************************

 **************************************************************************

                    xk=(   0.70000,   0.00000,   0.00000  )

     Band symmetry, C_4v (4mm)  point group:

     e(  1 -  1) =     -3.89433  eV     1   --> A_1  G_1 D_1   
     e(  2 -  2) =      0.49739  eV     1   --> B_2  G_4 D_2'  
     e(  3 -  4) =      3.36185  eV     2   --> E    G_5 D_5   
     e(  5 -  5) =      6.50027  eV     1   --> A_1  G_1 D_1   
     e(  6 -  6) =      7.62592  eV     1   --> B_2  G_4 D_2'  
     e(  7 -  8) =     13.13444  eV     2   --> E    G_5 D_5   

 **************************************************************************

 **************************************************************************

                    xk=(   0.73333,   0.00000,   0.00000  )

     Band symmetry, C_4v (4mm)  point group:

     e(  1 -  1) =     -3.70365  eV     1   --> A_1  G_1 D_1   
     e(  2 -  2) =      0.21421  eV     1   --> B_2  G_4 D_2'  
     e(  3 -  4) =      3.29078  eV     2   --> E    G_5 D_5   
     e(  5 -  5) =      6.46135  eV     1   --> A_1  G_1 D_1   
     e(  6 -  6) =      7.45368  eV     1   --> B_2  G_4 D_2'  
     e(  7 -  8) =     13.43496  eV     2   --> E    G_5 D_5   

 **************************************************************************

 **************************************************************************

                    xk=(   0.76667,   0.00000,   0.00000  )

     Band symmetry, C_4v (4mm)  point group:

     e(  1 -  1) =     -3.50533  eV     1   --> A_1  G_1 D_1   
     e(  2 -  2) =     -0.06625  eV     1   --> B_2  G_4 D_2'  
     e(  3 -  4) =      3.22782  eV     2   --> E    G_5 D_5   
     e(  5 -  5) =      6.43294  eV     1   --> A_1  G_1 D_1   
     e(  6 -  6) =      7.29457  eV     1   --> B_2  G_4 D_2'  
     e(  7 -  8) =     13.73672  eV     2   --> E    G_5 D_5   

 **************************************************************************

 **************************************************************************

                    xk=(   0.80000,   0.00000,   0.00000  )

     Band symmetry, C_4v (4mm)  point group:

     e(  1 -  1) =     -3.29958  eV     1   --> A_1  G_1 D_1   
     e(  2 -  2) =     -0.34361  eV     1   --> B_2  G_4 D_2'  
     e(  3 -  4) =      3.17309  eV     2   --> E    G_5 D_5   
     e(  5 -  5) =      6.41538  eV     1   --> A_1  G_1 D_1   
     e(  6 -  6) =      7.14880  eV     1   --> B_2  G_4 D_2'  
     e(  7 -  8) =     14.03893  eV     2   --> E    G_5 D_5   

 **************************************************************************

 **************************************************************************

                    xk=(   0.83333,   0.00000,   0.00000  )

     Band symmetry, C_4v (4mm)  point group:

     e(  1 -  1) =     -3.08660  eV     1   --> A_1  G_1 D_1   
     e(  2 -  2) =     -0.61751  eV     1   --> B_2  G_4 D_2'  
     e(  3 -  4) =      3.12665  eV     2   --> E    G_5 D_5   
     e(  5 -  5) =      6.40898  eV     1   --> A_1  G_1 D_1   
     e(  6 -  6) =      7.01645  eV     1   --> B_2  G_4 D_2'  
     e(  7 -  8) =     14.34022  eV     2   --> E    G_5 D_5   

 **************************************************************************

 **************************************************************************

                    xk=(   0.86667,   0.00000,   0.00000  )

     Band symmetry, C_4v (4mm)  point group:

     e(  1 -  1) =     -2.86662  eV     1   --> A_1  G_1 D_1   
     e(  2 -  2) =     -0.88756  eV     1   --> B_2  G_4 D_2'  
     e(  3 -  4) =      3.08857  eV     2   --> E    G_5 D_5   
     e(  5 -  5) =      6.41403  eV     1   --> A_1  G_1 D_1   
     e(  6 -  6) =      6.89753  eV     1   --> B_2  G_4 D_2'  
     e(  7 -  8) =     14.63799  eV     2   --> E    G_5 D_5   

 **************************************************************************

 **************************************************************************

                    xk=(   0.90000,   0.00000,   0.00000  )

     Band symmetry, C_4v (4mm)  point group:

     e(  1 -  1) =     -2.63989  eV     1   --> A_1  G_1 D_1   
     e(  2 -  2) =     -1.15337  eV     1   --> B_2  G_4 D_2'  
     e(  3 -  4) =      3.05890  eV     2   --> E    G_5 D_5   
     e(  5 -  5) =      6.43083  eV     1   --> A_1  G_1 D_1   
     e(  6 -  6) =      6.79198  eV     1   --> B_2  G_4 D_2'  
     e(  7 -  8) =     14.92683  eV     2   --> E    G_5 D_5   

 **************************************************************************

 **************************************************************************

                    xk=(   0.93333,   0.00000,   0.00000  )

     Band symmetry, C_4v (4mm)  point group:

     e(  1 -  1) =     -2.40666  eV     1   --> A_1  G_1 D_1   
     e(  2 -  2) =     -1.41459  eV     1   --> B_2  G_4 D_2'  
     e(  3 -  4) =      3.03768  eV     2   --> E    G_5 D_5   
     e(  5 -  5) =      6.45963  eV     1   --> A_1  G_1 D_1   
     e(  6 -  6) =      6.69968  eV     1   --> B_2  G_4 D_2'  
     e(  7 -  8) =     15.19426  eV     2   --> E    G_5 D_5   

 **************************************************************************

 **************************************************************************

                    xk=(   0.96667,   0.00000,   0.00000  )

     Band symmetry, C_4v (4mm)  point group:

     e(  1 -  1) =     -2.16721  eV     1   --> A_1  G_1 D_1   
     e(  2 -  2) =     -1.67085  eV     1   --> B_2  G_4 D_2'  
     e(  3 -  4) =      3.02494  eV     2   --> E    G_5 D_5   
     e(  5 -  5) =      6.50068  eV     1   --> A_1  G_1 D_1   
     e(  6 -  6) =      6.62049  eV     1   --> B_2  G_4 D_2'  
     e(  7 -  8) =     15.40843  eV     2   --> E    G_5 D_5   

 **************************************************************************

 **************************************************************************

                    xk=(   1.00000,   0.00000,   0.00000  )

     zone border point and non-symmorphic group 
     symmetry decomposition not available

 **************************************************************************

 **************************************************************************

                    xk=(   1.00000,   0.02500,   0.02500  )

     zone border point and non-symmorphic group 
     symmetry decomposition not available

 **************************************************************************

 **************************************************************************

                    xk=(   1.00000,   0.05000,   0.05000  )

     zone border point and non-symmorphic group 
     symmetry decomposition not available

 **************************************************************************

 **************************************************************************

                    xk=(   1.00000,   0.07500,   0.07500  )

     zone border point and non-symmorphic group 
     symmetry decomposition not available

 **************************************************************************

 **************************************************************************

                    xk=(   1.00000,   0.10000,   0.10000  )

     zone border point and non-symmorphic group 
     symmetry decomposition not available

 **************************************************************************

 **************************************************************************

                    xk=(   1.00000,   0.12500,   0.12500  )

     zone border point and non-symmorphic group 
     symmetry decomposition not available

 **************************************************************************

 **************************************************************************

                    xk=(   1.00000,   0.15000,   0.15000  )

     zone border point and non-symmorphic group 
     symmetry decomposition not available

 **************************************************************************

 **************************************************************************

                    xk=(   1.00000,   0.17500,   0.17500  )

     zone border point and non-symmorphic group 
     symmetry decomposition not available

 **************************************************************************

 **************************************************************************

                    xk=(   1.00000,   0.20000,   0.20000  )

     zone border point and non-symmorphic group 
     symmetry decomposition not available

 **************************************************************************

 **************************************************************************

                    xk=(   1.00000,   0.22500,   0.22500  )

     zone border point and non-symmorphic group 
     symmetry decomposition not available

 **************************************************************************

 **************************************************************************

                    xk=(   1.00000,   0.25000,   0.25000  )

     zone border point and non-symmorphic group 
     symmetry decomposition not available

 **************************************************************************

 **************************************************************************

                    xk=(   0.96667,   0.24167,   0.24167  )

     point group C_s (m)    
     there are  2 classes
     the character table:

       E     s    
A'     1.00  1.00
A''    1.00 -1.00

     the symmetry operations in each class and the name of the first element:

     E        1
                                                                 
     s        2
                                                                 

     Band symmetry, C_s (m)     point group:

     e(  1 -  1) =     -2.34005  eV     1   --> A'             
     e(  2 -  2) =     -1.34950  eV     1   --> A'             
     e(  3 -  3) =      1.70069  eV     1   --> A'             
     e(  4 -  4) =      3.40866  eV     1   --> A''            
     e(  5 -  5) =      6.99990  eV     1   --> A'             
     e(  6 -  6) =      9.69867  eV     1   --> A'             
     e(  7 -  7) =     13.07475  eV     1   --> A''            
     e(  8 -  8) =     13.40178  eV     1   --> A'             

 **************************************************************************

 **************************************************************************

                    xk=(   0.93333,   0.23333,   0.23333  )

     Band symmetry, C_s (m)     point group:

     e(  1 -  1) =     -2.42028  eV     1   --> A'             
     e(  2 -  2) =     -1.27661  eV     1   --> A'             
     e(  3 -  3) =      1.76918  eV     1   --> A'             
     e(  4 -  4) =      3.39500  eV     1   --> A''            
     e(  5 -  5) =      6.98731  eV     1   --> A'             
     e(  6 -  6) =      9.55498  eV     1   --> A'             
     e(  7 -  7) =     13.00697  eV     1   --> A''            
     e(  8 -  8) =     13.18228  eV     1   --> A'             

 **************************************************************************

 **************************************************************************

                    xk=(   0.90000,   0.22500,   0.22500  )

     Band symmetry, C_s (m)     point group:

     e(  1 -  1) =     -2.55794  eV     1   --> A'             
     e(  2 -  2) =     -1.14537  eV     1   --> A'             
     e(  3 -  3) =      1.86010  eV     1   --> A'             
     e(  4 -  4) =      3.39010  eV     1   --> A''            
     e(  5 -  5) =      6.98628  eV     1   --> A'             
     e(  6 -  6) =      9.42541  eV     1   --> A'             
     e(  7 -  7) =     12.88955  eV     1   --> A''            
     e(  8 -  8) =     12.96287  eV     1   --> A'             

 **************************************************************************

 **************************************************************************

                    xk=(   0.86667,   0.21667,   0.21667  )

     Band symmetry, C_s (m)     point group:

     e(  1 -  1) =     -2.72879  eV     1   --> A'             
     e(  2 -  2) =     -0.97697  eV     1   --> A'             
     e(  3 -  3) =      1.97012  eV     1   --> A'             
     e(  4 -  4) =      3.39407  eV     1   --> A''            
     e(  5 -  5) =      6.99639  eV     1   --> A'             
     e(  6 -  6) =      9.31085  eV     1   --> A'             
     e(  7 -  7) =     12.74481  eV     1   --> A'             
     e(  8 -  8) =     12.75110  eV     1   --> A''            

 **************************************************************************

 **************************************************************************

                    xk=(   0.83333,   0.20833,   0.20833  )

     Band symmetry, C_s (m)     point group:

     e(  1 -  1) =     -2.91692  eV     1   --> A'             
     e(  2 -  2) =     -0.78482  eV     1   --> A'             
     e(  3 -  3) =      2.09634  eV     1   --> A'             
     e(  4 -  4) =      3.40701  eV     1   --> A''            
     e(  5 -  5) =      7.01698  eV     1   --> A'             
     e(  6 -  6) =      9.21235  eV     1   --> A'             
     e(  7 -  7) =     12.52854  eV     1   --> A'             
     e(  8 -  8) =     12.60415  eV     1   --> A''            

 **************************************************************************

 **************************************************************************

                    xk=(   0.80000,   0.20000,   0.20000  )

     Band symmetry, C_s (m)     point group:

     e(  1 -  1) =     -3.11322  eV     1   --> A'             
     e(  2 -  2) =     -0.57606  eV     1   --> A'             
     e(  3 -  3) =      2.23630  eV     1   --> A'             
     e(  4 -  4) =      3.42896  eV     1   --> A''            
     e(  5 -  5) =      7.04710  eV     1   --> A'             
     e(  6 -  6) =      9.13111  eV     1   --> A'             
     e(  7 -  7) =     12.31431  eV     1   --> A'             
     e(  8 -  8) =     12.45403  eV     1   --> A''            

 **************************************************************************

 **************************************************************************

                    xk=(   0.76667,   0.19167,   0.19167  )

     Band symmetry, C_s (m)     point group:

     e(  1 -  1) =     -3.31228  eV     1   --> A'             
     e(  2 -  2) =     -0.35449  eV     1   --> A'             
     e(  3 -  3) =      2.38783  eV     1   --> A'             
     e(  4 -  4) =      3.45998  eV     1   --> A''            
     e(  5 -  5) =      7.08554  eV     1   --> A'             
     e(  6 -  6) =      9.06855  eV     1   --> A'             
     e(  7 -  7) =     12.10230  eV     1   --> A'             
     e(  8 -  8) =     12.30290  eV     1   --> A''            

 **************************************************************************

 **************************************************************************

                    xk=(   0.73333,   0.18333,   0.18333  )

     Band symmetry, C_s (m)     point group:

     e(  1 -  1) =     -3.51071  eV     1   --> A'             
     e(  2 -  2) =     -0.12223  eV     1   --> A'             
     e(  3 -  3) =      2.54905  eV     1   --> A'             
     e(  4 -  4) =      3.50005  eV     1   --> A''            
     e(  5 -  5) =      7.13076  eV     1   --> A'             
     e(  6 -  6) =      9.02626  eV     1   --> A'             
     e(  7 -  7) =     11.89271  eV     1   --> A'             
     e(  8 -  8) =     12.15132  eV     1   --> A''            

 **************************************************************************

 **************************************************************************

                    xk=(   0.70000,   0.17500,   0.17500  )

     Band symmetry, C_s (m)     point group:

     e(  1 -  1) =     -3.70622  eV     1   --> A'             
     e(  2 -  2) =      0.11943  eV     1   --> A'             
     e(  3 -  3) =      2.71825  eV     1   --> A'             
     e(  4 -  4) =      3.54917  eV     1   --> A''            
     e(  5 -  5) =      7.18100  eV     1   --> A'             
     e(  6 -  6) =      9.00589  eV     1   --> A'             
     e(  7 -  7) =     11.68579  eV     1   --> A'             
     e(  8 -  8) =     11.99898  eV     1   --> A''            

 **************************************************************************

 **************************************************************************

                    xk=(   0.66667,   0.16667,   0.16667  )

     Band symmetry, C_s (m)     point group:

     e(  1 -  1) =     -3.89719  eV     1   --> A'             
     e(  2 -  2) =      0.36968  eV     1   --> A'             
     e(  3 -  3) =      2.89390  eV     1   --> A'             
     e(  4 -  4) =      3.60728  eV     1   --> A''            
     e(  5 -  5) =      7.23435  eV     1   --> A'             
     e(  6 -  6) =      9.00898  eV     1   --> A'             
     e(  7 -  7) =     11.48196  eV     1   --> A'             
     e(  8 -  8) =     11.84498  eV     1   --> A''            

 **************************************************************************

 **************************************************************************

                    xk=(   0.63333,   0.15833,   0.15833  )

     Band symmetry, C_s (m)     point group:

     e(  1 -  1) =     -4.08243  eV     1   --> A'             
     e(  2 -  2) =      0.62793  eV     1   --> A'             
     e(  3 -  3) =      3.07455  eV     1   --> A'             
     e(  4 -  4) =      3.67431  eV     1   --> A''            
     e(  5 -  5) =      7.28899  eV     1   --> A'             
     e(  6 -  6) =      9.03656  eV     1   --> A'             
     e(  7 -  7) =     11.28182  eV     1   --> A'             
     e(  8 -  8) =     11.68808  eV     1   --> A''            

 **************************************************************************

 **************************************************************************

                    xk=(   0.60000,   0.15000,   0.15000  )

     Band symmetry, C_s (m)     point group:

     e(  1 -  1) =     -4.26103  eV     1   --> A'             
     e(  2 -  2) =      0.89377  eV     1   --> A'             
     e(  3 -  3) =      3.25888  eV     1   --> A'             
     e(  4 -  4) =      3.75015  eV     1   --> A''            
     e(  5 -  5) =      7.34346  eV     1   --> A'             
     e(  6 -  6) =      9.08878  eV     1   --> A'             
     e(  7 -  7) =     11.08635  eV     1   --> A'             
     e(  8 -  8) =     11.52674  eV     1   --> A''            

 **************************************************************************

 **************************************************************************

                    xk=(   0.56667,   0.14167,   0.14167  )

     Band symmetry, C_s (m)     point group:

     e(  1 -  1) =     -4.43227  eV     1   --> A'             
     e(  2 -  2) =      1.16682  eV     1   --> A'             
     e(  3 -  3) =      3.44564  eV     1   --> A'             
     e(  4 -  4) =      3.83464  eV     1   --> A''            
     e(  5 -  5) =      7.39688  eV     1   --> A'             
     e(  6 -  6) =      9.16413  eV     1   --> A'             
     e(  7 -  7) =     10.89722  eV     1   --> A'             
     e(  8 -  8) =     11.35937  eV     1   --> A''            

 **************************************************************************

 **************************************************************************

                    xk=(   0.53333,   0.13333,   0.13333  )

     Band symmetry, C_s (m)     point group:

     e(  1 -  1) =     -4.59558  eV     1   --> A'             
     e(  2 -  2) =      1.44677  eV     1   --> A'             
     e(  3 -  3) =      3.63364  eV     1   --> A'             
     e(  4 -  4) =      3.92761  eV     1   --> A''            
     e(  5 -  5) =      7.44912  eV     1   --> A'             
     e(  6 -  6) =      9.25862  eV     1   --> A'             
     e(  7 -  7) =     10.71739  eV     1   --> A'             
     e(  8 -  8) =     11.18444  eV     1   --> A''            

 **************************************************************************

 **************************************************************************

                    xk=(   0.50000,   0.12500,   0.12500  )

     Band symmetry, C_s (m)     point group:

     e(  1 -  1) =     -4.75051  eV     1   --> A'             
     e(  2 -  2) =      1.73328  eV     1   --> A'             
     e(  3 -  3) =      3.82174  eV     1   --> A'             
     e(  4 -  4) =      4.02881  eV     1   --> A''            
     e(  5 -  5) =      7.50065  eV     1   --> A'             
     e(  6 -  6) =      9.36408  eV     1   --> A'             
     e(  7 -  7) =     10.55259  eV     1   --> A'             
     e(  8 -  8) =     11.00072  eV     1   --> A''            

 **************************************************************************

 **************************************************************************

                    xk=(   0.46667,   0.11667,   0.11667  )

     Band symmetry, C_s (m)     point group:

     e(  1 -  1) =     -4.89667  eV     1   --> A'             
     e(  2 -  2) =      2.02600  eV     1   --> A'             
     e(  3 -  3) =      4.00883  eV     1   --> A'             
     e(  4 -  4) =      4.13792  eV     1   --> A''            
     e(  5 -  5) =      7.55241  eV     1   --> A'             
     e(  6 -  6) =      9.46467  eV     1   --> A'             
     e(  7 -  7) =     10.41458  eV     1   --> A'             
     e(  8 -  8) =     10.80747  eV     1   --> A''            

 **************************************************************************

 **************************************************************************

                    xk=(   0.43333,   0.10833,   0.10833  )

     Band symmetry, C_s (m)     point group:

     e(  1 -  1) =     -5.03375  eV     1   --> A'             
     e(  2 -  2) =      2.32449  eV     1   --> A'             
     e(  3 -  3) =      4.19384  eV     1   --> A'             
     e(  4 -  4) =      4.25457  eV     1   --> A''            
     e(  5 -  5) =      7.60548  eV     1   --> A'             
     e(  6 -  6) =      9.53152  eV     1   --> A'             
     e(  7 -  7) =     10.32574  eV     1   --> A'             
     e(  8 -  8) =     10.60464  eV     1   --> A''            

 **************************************************************************

 **************************************************************************

                    xk=(   0.40000,   0.10000,   0.10000  )

     Band symmetry, C_s (m)     point group:

     e(  1 -  1) =     -5.16149  eV     1   --> A'             
     e(  2 -  2) =      2.62826  eV     1   --> A'             
     e(  3 -  3) =      4.37567  eV     1   --> A'             
     e(  4 -  4) =      4.37825  eV     1   --> A''            
     e(  5 -  5) =      7.66088  eV     1   --> A'             
     e(  6 -  6) =      9.53022  eV     1   --> A'             
     e(  7 -  7) =     10.31030  eV     1   --> A'             
     e(  8 -  8) =     10.39295  eV     1   --> A''            

 **************************************************************************

 **************************************************************************

                    xk=(   0.36667,   0.09167,   0.09167  )

     Band symmetry, C_s (m)     point group:

     e(  1 -  1) =     -5.27966  eV     1   --> A'             
     e(  2 -  2) =      2.93664  eV     1   --> A'             
     e(  3 -  3) =      4.50833  eV     1   --> A''            
     e(  4 -  4) =      4.55320  eV     1   --> A'             
     e(  5 -  5) =      7.71936  eV     1   --> A'             
     e(  6 -  6) =      9.45724  eV     1   --> A'             
     e(  7 -  7) =     10.17388  eV     1   --> A''            
     e(  8 -  8) =     10.35471  eV     1   --> A'             

 **************************************************************************

 **************************************************************************

                    xk=(   0.33333,   0.08333,   0.08333  )

     Band symmetry, C_s (m)     point group:

     e(  1 -  1) =     -5.38809  eV     1   --> A'             
     e(  2 -  2) =      3.24881  eV     1   --> A'             
     e(  3 -  3) =      4.64398  eV     1   --> A''            
     e(  4 -  4) =      4.72524  eV     1   --> A'             
     e(  5 -  5) =      7.78128  eV     1   --> A'             
     e(  6 -  6) =      9.34135  eV     1   --> A'             
     e(  7 -  7) =      9.94959  eV     1   --> A''            
     e(  8 -  8) =     10.40206  eV     1   --> A'             

 **************************************************************************

 **************************************************************************

                    xk=(   0.30000,   0.07500,   0.07500  )

     Band symmetry, C_s (m)     point group:

     e(  1 -  1) =     -5.48660  eV     1   --> A'             
     e(  2 -  2) =      3.56363  eV     1   --> A'             
     e(  3 -  3) =      4.78414  eV     1   --> A''            
     e(  4 -  4) =      4.89051  eV     1   --> A'             
     e(  5 -  5) =      7.84652  eV     1   --> A'             
     e(  6 -  6) =      9.20748  eV     1   --> A'             
     e(  7 -  7) =      9.72278  eV     1   --> A''            
     e(  8 -  8) =     10.38932  eV     1   --> A'             

 **************************************************************************

 **************************************************************************

                    xk=(   0.26667,   0.06667,   0.06667  )

     Band symmetry, C_s (m)     point group:

     e(  1 -  1) =     -5.57506  eV     1   --> A'             
     e(  2 -  2) =      3.87960  eV     1   --> A'             
     e(  3 -  3) =      4.92738  eV     1   --> A''            
     e(  4 -  4) =      5.04758  eV     1   --> A'             
     e(  5 -  5) =      7.91447  eV     1   --> A'             
     e(  6 -  6) =      9.06888  eV     1   --> A'             
     e(  7 -  7) =      9.49666  eV     1   --> A''            
     e(  8 -  8) =     10.27754  eV     1   --> A'             

 **************************************************************************

 **************************************************************************

                    xk=(   0.23333,   0.05833,   0.05833  )

     Band symmetry, C_s (m)     point group:

     e(  1 -  1) =     -5.65335  eV     1   --> A'             
     e(  2 -  2) =      4.19452  eV     1   --> A'             
     e(  3 -  3) =      5.07179  eV     1   --> A''            
     e(  4 -  4) =      5.19484  eV     1   --> A'             
     e(  5 -  5) =      7.98389  eV     1   --> A'             
     e(  6 -  6) =      8.93254  eV     1   --> A'             
     e(  7 -  7) =      9.27487  eV     1   --> A''            
     e(  8 -  8) =     10.07389  eV     1   --> A'             

 **************************************************************************

 **************************************************************************

                    xk=(   0.20000,   0.05000,   0.05000  )

     Band symmetry, C_s (m)     point group:

     e(  1 -  1) =     -5.72138  eV     1   --> A'             
     e(  2 -  2) =      4.50528  eV     1   --> A'             
     e(  3 -  3) =      5.21480  eV     1   --> A''            
     e(  4 -  4) =      5.33041  eV     1   --> A'             
     e(  5 -  5) =      8.05298  eV     1   --> A'             
     e(  6 -  6) =      8.80268  eV     1   --> A'             
     e(  7 -  7) =      9.06160  eV     1   --> A''            
     e(  8 -  8) =      9.81381  eV     1   --> A'             

 **************************************************************************

 **************************************************************************

                    xk=(   0.16667,   0.04167,   0.04167  )

     Band symmetry, C_s (m)     point group:

     e(  1 -  1) =     -5.77908  eV     1   --> A'             
     e(  2 -  2) =      4.80716  eV     1   --> A'             
     e(  3 -  3) =      5.35288  eV     1   --> A''            
     e(  4 -  4) =      5.45212  eV     1   --> A'             
     e(  5 -  5) =      8.11934  eV     1   --> A'             
     e(  6 -  6) =      8.68228  eV     1   --> A'             
     e(  7 -  7) =      8.86174  eV     1   --> A''            
     e(  8 -  8) =      9.53123  eV     1   --> A'             

 **************************************************************************

 **************************************************************************

                    xk=(   0.13333,   0.03333,   0.03333  )

     Band symmetry, C_s (m)     point group:

     e(  1 -  1) =     -5.82637  eV     1   --> A'             
     e(  2 -  2) =      5.09289  eV     1   --> A'             
     e(  3 -  3) =      5.48133  eV     1   --> A''            
     e(  4 -  4) =      5.55749  eV     1   --> A'             
     e(  5 -  5) =      8.18004  eV     1   --> A'             
     e(  6 -  6) =      8.57344  eV     1   --> A'             
     e(  7 -  7) =      8.68120  eV     1   --> A''            
     e(  8 -  8) =      9.25213  eV     1   --> A'             

 **************************************************************************

 **************************************************************************

                    xk=(   0.10000,   0.02500,   0.02500  )

     Band symmetry, C_s (m)     point group:

     e(  1 -  1) =     -5.86321  eV     1   --> A'             
     e(  2 -  2) =      5.35112  eV     1   --> A'             
     e(  3 -  3) =      5.59396  eV     1   --> A''            
     e(  4 -  4) =      5.64376  eV     1   --> A'             
     e(  5 -  5) =      8.23189  eV     1   --> A'             
     e(  6 -  6) =      8.47727  eV     1   --> A'             
     e(  7 -  7) =      8.52711  eV     1   --> A''            
     e(  8 -  8) =      8.99971  eV     1   --> A'             

 **************************************************************************

 **************************************************************************

                    xk=(   0.06667,   0.01667,   0.01667  )

     Band symmetry, C_s (m)     point group:

     e(  1 -  1) =     -5.88954  eV     1   --> A'             
     e(  2 -  2) =      5.56453  eV     1   --> A'             
     e(  3 -  3) =      5.68326  eV     1   --> A''            
     e(  4 -  4) =      5.70809  eV     1   --> A'             
     e(  5 -  5) =      8.27167  eV     1   --> A'             
     e(  6 -  6) =      8.39442  eV     1   --> A'             
     e(  7 -  7) =      8.40769  eV     1   --> A''            
     e(  8 -  8) =      8.79909  eV     1   --> A'             

 **************************************************************************

 **************************************************************************

                    xk=(   0.03333,   0.00833,   0.00833  )

     Band symmetry, C_s (m)     point group:

     e(  1 -  1) =     -5.90535  eV     1   --> A'             
     e(  2 -  2) =      5.70943  eV     1   --> A'             
     e(  3 -  3) =      5.74124  eV     1   --> A''            
     e(  4 -  4) =      5.74792  eV     1   --> A'             
     e(  5 -  5) =      8.29665  eV     1   --> A'             
     e(  6 -  6) =      8.33080  eV     1   --> A'             
     e(  7 -  7) =      8.33144  eV     1   --> A''            
     e(  8 -  8) =      8.67370  eV     1   --> A'             

 **************************************************************************

 **************************************************************************

                    xk=(   0.00000,   0.00000,   0.00000  )

     point group O_h (m-3m) 
     there are 10 classes
     the character table:

       E     8C3   3C2   6C4   6C2'  i     8S6   3s_h  6S4   6s_d 
A_1g   1.00  1.00  1.00  1.00  1.00  1.00  1.00  1.00  1.00  1.00
A_2g   1.00  1.00  1.00 -1.00 -1.00  1.00  1.00  1.00 -1.00 -1.00
E_g    2.00 -1.00  2.00  0.00  0.00  2.00 -1.00  2.00  0.00  0.00
T_1g   3.00  0.00 -1.00  1.00 -1.00  3.00  0.00 -1.00  1.00 -1.00
T_2g   3.00  0.00 -1.00 -1.00  1.00  3.00  0.00 -1.00 -1.00  1.00
A_1u   1.00  1.00  1.00  1.00  1.00 -1.00 -1.00 -1.00 -1.00 -1.00
A_2u   1.00  1.00  1.00 -1.00 -1.00 -1.00 -1.00 -1.00  1.00  1.00
E_u    2.00 -1.00  2.00  0.00  0.00 -2.00  1.00 -2.00  0.00  0.00
T_1u   3.00  0.00 -1.00  1.00 -1.00 -3.00  0.00  1.00 -1.00  1.00
T_2u   3.00  0.00 -1.00 -1.00  1.00 -3.00  0.00  1.00  1.00 -1.00

     the symmetry operations in each class and the name of the first element:

     E        1
                                                                 
     8C3     17   19   20   18   24   21   22   23
                                                                 
     3C2      2    4    3
                                                                 
     6C4      7    8   15   16   12   11
                                                                 
     6C2'     5    6   14   13   10    9
                                                                 
     i       25
                                                                 
     8S6     41   43   44   42   48   45   46   47
                                                                 
     3s_h    26   28   27
                                                                 
     6S4     31   32   39   40   36   35
                                                                 
     6s_d    29   30   38   37   34   33
                                                                 

     Band symmetry, O_h (m-3m)  point group:

     e(  1 -  1) =     -5.91063  eV     1   --> A_1g G_1   G_1+
     e(  2 -  4) =      5.76142  eV     3   --> T_2g G_25' G_5+
     e(  5 -  7) =      8.30514  eV     3   --> T_1u G_15  G_4-
     e(  8 -  8) =      8.63233  eV     1   --> A_2u G_2'  G_2-

 **************************************************************************

     BANDS        :     14.56s CPU     15.42s WALL


   This run was terminated on:  12:25:35  20Jul2025            

=------------------------------------------------------------------------------=
   JOB DONE.
=------------------------------------------------------------------------------=
