
     Program PWSCF v.6.6 starts on 20Jul2025 at 12:24:37 

     This program is part of the open-source Quantum ESPRESSO suite
     for quantum simulation of materials; please cite
         "P. Giannozzi et al., J. Phys.:Condens. Matter 21 395502 (2009);
         "P. Giannozzi et al., J. Phys.:Condens. Matter 29 465901 (2017);
          URL http://www.quantum-espresso.org", 
     in publications or presentations arising from this work. More details at
     http://www.quantum-espresso.org/quote

     Parallel version (MPI), running on     1 processors

     MPI processes distributed on     1 nodes
     Fft bands division:     nmany     =       1
     Waiting for input...
     Reading input from standard input

     Current dimensions of program PWSCF are:
     Max number of different atomic species (ntypx) = 10
     Max number of k-points (npk) =  40000
     Max angular momentum in pseudopotentials (lmaxx) =  3

     Atomic positions and unit cell read from directory:
     ./outdir/si.save/

     file Si.pbe-n-kjpaw_psl.1.0.0.UPF: wavefunction(s)  3S 3P renormalized

     Subspace diagonalization in iterative solution of the eigenvalue problem:
     a serial algorithm will be used


     G-vector sticks info
     --------------------
     sticks:   dense  smooth     PW     G-vecs:    dense   smooth      PW
     Sum        1189     595    187                27317     9577    1639



     bravais-lattice index     =            2
     lattice parameter (alat)  =      10.4109  a.u.
     unit-cell volume          =     282.1019 (a.u.)^3
     number of atoms/cell      =            2
     number of atomic types    =            1
     number of electrons       =         8.00
     number of Kohn-Sham states=            8
     kinetic-energy cutoff     =      40.0000  Ry
     charge density cutoff     =     320.0000  Ry
     Exchange-correlation= SLA PW PBX PBC
                           (   1   4   3   4   0   0   0)

     celldm(1)=  10.410909  celldm(2)=   0.000000  celldm(3)=   0.000000
     celldm(4)=   0.000000  celldm(5)=   0.000000  celldm(6)=   0.000000

     crystal axes: (cart. coord. in units of alat)
               a(1) = (  -0.500000   0.000000   0.500000 )  
               a(2) = (   0.000000   0.500000   0.500000 )  
               a(3) = (  -0.500000   0.500000   0.000000 )  

     reciprocal axes: (cart. coord. in units 2 pi/alat)
               b(1) = ( -1.000000 -1.000000  1.000000 )  
               b(2) = (  1.000000  1.000000  1.000000 )  
               b(3) = ( -1.000000  1.000000 -1.000000 )  


     PseudoPot. # 1 for Si read from file:
     ./Si.pbe-n-kjpaw_psl.1.0.0.UPF
     MD5 check sum: c39c59da582df4a0d9f10159256ea34e
     Pseudo is Projector augmented-wave + core cor, Zval =  4.0
     Generated using "atomic" code by A. Dal Corso v.6.3
     Shape of augmentation charge: PSQ
     Using radial grid of 1141 points,  6 beta functions with: 
                l(1) =   0
                l(2) =   0
                l(3) =   1
                l(4) =   1
                l(5) =   2
                l(6) =   2
     Q(r) pseudized with 0 coefficients 


     atomic species   valence    mass     pseudopotential
        Si             4.00    28.08550     Si( 1.00)

     48 Sym. Ops., with inversion, found (24 have fractional translation)



   Cartesian axes

     site n.     atom                  positions (alat units)
         1           Si  tau(   1) = (   0.0000000   0.0000000   0.0000000  )
         2           Si  tau(   2) = (   0.2500000   0.2500000   0.2500000  )

     number of k points=    91
                       cart. coord. in units 2pi/alat
        k(    1) = (   0.5000000   0.5000000   0.5000000), wk =   0.0219780
        k(    2) = (   0.4750000   0.4750000   0.4750000), wk =   0.0219780
        k(    3) = (   0.4500000   0.4500000   0.4500000), wk =   0.0219780
        k(    4) = (   0.4250000   0.4250000   0.4250000), wk =   0.0219780
        k(    5) = (   0.4000000   0.4000000   0.4000000), wk =   0.0219780
        k(    6) = (   0.3750000   0.3750000   0.3750000), wk =   0.0219780
        k(    7) = (   0.3500000   0.3500000   0.3500000), wk =   0.0219780
        k(    8) = (   0.3250000   0.3250000   0.3250000), wk =   0.0219780
        k(    9) = (   0.3000000   0.3000000   0.3000000), wk =   0.0219780
        k(   10) = (   0.2750000   0.2750000   0.2750000), wk =   0.0219780
        k(   11) = (   0.2500000   0.2500000   0.2500000), wk =   0.0219780
        k(   12) = (   0.2250000   0.2250000   0.2250000), wk =   0.0219780
        k(   13) = (   0.2000000   0.2000000   0.2000000), wk =   0.0219780
        k(   14) = (   0.1750000   0.1750000   0.1750000), wk =   0.0219780
        k(   15) = (   0.1500000   0.1500000   0.1500000), wk =   0.0219780
        k(   16) = (   0.1250000   0.1250000   0.1250000), wk =   0.0219780
        k(   17) = (   0.1000000   0.1000000   0.1000000), wk =   0.0219780
        k(   18) = (   0.0750000   0.0750000   0.0750000), wk =   0.0219780
        k(   19) = (   0.0500000   0.0500000   0.0500000), wk =   0.0219780
        k(   20) = (   0.0250000   0.0250000   0.0250000), wk =   0.0219780
        k(   21) = (   0.0000000   0.0000000   0.0000000), wk =   0.0219780
        k(   22) = (   0.0333333   0.0000000   0.0000000), wk =   0.0219780
        k(   23) = (   0.0666667   0.0000000   0.0000000), wk =   0.0219780
        k(   24) = (   0.1000000   0.0000000   0.0000000), wk =   0.0219780
        k(   25) = (   0.1333333   0.0000000   0.0000000), wk =   0.0219780
        k(   26) = (   0.1666667   0.0000000   0.0000000), wk =   0.0219780
        k(   27) = (   0.2000000   0.0000000   0.0000000), wk =   0.0219780
        k(   28) = (   0.2333333   0.0000000   0.0000000), wk =   0.0219780
        k(   29) = (   0.2666667   0.0000000   0.0000000), wk =   0.0219780
        k(   30) = (   0.3000000   0.0000000   0.0000000), wk =   0.0219780
        k(   31) = (   0.3333333   0.0000000   0.0000000), wk =   0.0219780
        k(   32) = (   0.3666667   0.0000000   0.0000000), wk =   0.0219780
        k(   33) = (   0.4000000   0.0000000   0.0000000), wk =   0.0219780
        k(   34) = (   0.4333333   0.0000000   0.0000000), wk =   0.0219780
        k(   35) = (   0.4666667   0.0000000   0.0000000), wk =   0.0219780
        k(   36) = (   0.5000000   0.0000000   0.0000000), wk =   0.0219780
        k(   37) = (   0.5333333   0.0000000   0.0000000), wk =   0.0219780
        k(   38) = (   0.5666667   0.0000000   0.0000000), wk =   0.0219780
        k(   39) = (   0.6000000   0.0000000   0.0000000), wk =   0.0219780
        k(   40) = (   0.6333333   0.0000000   0.0000000), wk =   0.0219780
        k(   41) = (   0.6666667   0.0000000   0.0000000), wk =   0.0219780
        k(   42) = (   0.7000000   0.0000000   0.0000000), wk =   0.0219780
        k(   43) = (   0.7333333   0.0000000   0.0000000), wk =   0.0219780
        k(   44) = (   0.7666667   0.0000000   0.0000000), wk =   0.0219780
        k(   45) = (   0.8000000   0.0000000   0.0000000), wk =   0.0219780
        k(   46) = (   0.8333333   0.0000000   0.0000000), wk =   0.0219780
        k(   47) = (   0.8666667   0.0000000   0.0000000), wk =   0.0219780
        k(   48) = (   0.9000000   0.0000000   0.0000000), wk =   0.0219780
        k(   49) = (   0.9333333   0.0000000   0.0000000), wk =   0.0219780
        k(   50) = (   0.9666667   0.0000000   0.0000000), wk =   0.0219780
        k(   51) = (   1.0000000   0.0000000   0.0000000), wk =   0.0219780
        k(   52) = (   1.0000000   0.0250000   0.0250000), wk =   0.0219780
        k(   53) = (   1.0000000   0.0500000   0.0500000), wk =   0.0219780
        k(   54) = (   1.0000000   0.0750000   0.0750000), wk =   0.0219780
        k(   55) = (   1.0000000   0.1000000   0.1000000), wk =   0.0219780
        k(   56) = (   1.0000000   0.1250000   0.1250000), wk =   0.0219780
        k(   57) = (   1.0000000   0.1500000   0.1500000), wk =   0.0219780
        k(   58) = (   1.0000000   0.1750000   0.1750000), wk =   0.0219780
        k(   59) = (   1.0000000   0.2000000   0.2000000), wk =   0.0219780
        k(   60) = (   1.0000000   0.2250000   0.2250000), wk =   0.0219780
        k(   61) = (   1.0000000   0.2500000   0.2500000), wk =   0.0219780
        k(   62) = (   0.9666667   0.2416667   0.2416667), wk =   0.0219780
        k(   63) = (   0.9333333   0.2333333   0.2333333), wk =   0.0219780
        k(   64) = (   0.9000000   0.2250000   0.2250000), wk =   0.0219780
        k(   65) = (   0.8666667   0.2166667   0.2166667), wk =   0.0219780
        k(   66) = (   0.8333333   0.2083333   0.2083333), wk =   0.0219780
        k(   67) = (   0.8000000   0.2000000   0.2000000), wk =   0.0219780
        k(   68) = (   0.7666667   0.1916667   0.1916667), wk =   0.0219780
        k(   69) = (   0.7333333   0.1833333   0.1833333), wk =   0.0219780
        k(   70) = (   0.7000000   0.1750000   0.1750000), wk =   0.0219780
        k(   71) = (   0.6666667   0.1666667   0.1666667), wk =   0.0219780
        k(   72) = (   0.6333333   0.1583333   0.1583333), wk =   0.0219780
        k(   73) = (   0.6000000   0.1500000   0.1500000), wk =   0.0219780
        k(   74) = (   0.5666667   0.1416667   0.1416667), wk =   0.0219780
        k(   75) = (   0.5333333   0.1333333   0.1333333), wk =   0.0219780
        k(   76) = (   0.5000000   0.1250000   0.1250000), wk =   0.0219780
        k(   77) = (   0.4666667   0.1166667   0.1166667), wk =   0.0219780
        k(   78) = (   0.4333333   0.1083333   0.1083333), wk =   0.0219780
        k(   79) = (   0.4000000   0.1000000   0.1000000), wk =   0.0219780
        k(   80) = (   0.3666667   0.0916667   0.0916667), wk =   0.0219780
        k(   81) = (   0.3333333   0.0833333   0.0833333), wk =   0.0219780
        k(   82) = (   0.3000000   0.0750000   0.0750000), wk =   0.0219780
        k(   83) = (   0.2666667   0.0666667   0.0666667), wk =   0.0219780
        k(   84) = (   0.2333333   0.0583333   0.0583333), wk =   0.0219780
        k(   85) = (   0.2000000   0.0500000   0.0500000), wk =   0.0219780
        k(   86) = (   0.1666667   0.0416667   0.0416667), wk =   0.0219780
        k(   87) = (   0.1333333   0.0333333   0.0333333), wk =   0.0219780
        k(   88) = (   0.1000000   0.0250000   0.0250000), wk =   0.0219780
        k(   89) = (   0.0666667   0.0166667   0.0166667), wk =   0.0219780
        k(   90) = (   0.0333333   0.0083333   0.0083333), wk =   0.0219780
        k(   91) = (   0.0000000   0.0000000   0.0000000), wk =   0.0219780

     Dense  grid:    27317 G-vectors     FFT dimensions: (  48,  48,  48)

     Smooth grid:     9577 G-vectors     FFT dimensions: (  32,  32,  32)

     Estimated max dynamical RAM per process >      91.49 MB

     The potential is recalculated from file :
     ./outdir/si.save/charge-density

     Starting wfcs are    8 randomized atomic wfcs
     Checking if some PAW data can be deallocated... 

     Band Structure Calculation
     Davidson diagonalization with overlap
     c_bands:  1 eigenvalues not converged

     ethr =  1.25E-10,  avg # of iterations = 32.3

     total cpu time spent up to now is       22.7 secs

     End of band structure calculation

          k = 0.5000 0.5000 0.5000 (  1194 PWs)   bands (ev):

    -3.6868  -1.0131   4.6001   4.6001   7.1456   9.1181   9.1181  13.4376

          k = 0.4750 0.4750 0.4750 (  1194 PWs)   bands (ev):

    -3.7197  -0.9652   4.6045   4.6045   7.1507   9.1227   9.1227  13.4446

          k = 0.4500 0.4500 0.4500 (  1197 PWs)   bands (ev):

    -3.8117  -0.8283   4.6177   4.6177   7.1662   9.1360   9.1360  13.4646

          k = 0.4250 0.4250 0.4250 (  1191 PWs)   bands (ev):

    -3.9474  -0.6178   4.6397   4.6397   7.1920   9.1571   9.1571  13.4947

          k = 0.4000 0.4000 0.4000 (  1188 PWs)   bands (ev):

    -4.1102  -0.3505   4.6704   4.6704   7.2278   9.1839   9.1839  13.5276

          k = 0.3750 0.3750 0.3750 (  1203 PWs)   bands (ev):

    -4.2870  -0.0399   4.7098   4.7098   7.2736   9.2134   9.2134  13.5473

          k = 0.3500 0.3500 0.3500 (  1200 PWs)   bands (ev):

    -4.4684   0.3044   4.7576   4.7576   7.3291   9.2417   9.2417  13.5178

          k = 0.3250 0.3250 0.3250 (  1212 PWs)   bands (ev):

    -4.6481   0.6757   4.8138   4.8138   7.3939   9.2637   9.2637  13.3791

          k = 0.3000 0.3000 0.3000 (  1209 PWs)   bands (ev):

    -4.8220   1.0691   4.8781   4.8781   7.4675   9.2734   9.2734  13.1046

          k = 0.2750 0.2750 0.2750 (  1209 PWs)   bands (ev):

    -4.9871   1.4809   4.9500   4.9500   7.5492   9.2642   9.2642  12.7384

          k = 0.2500 0.2500 0.2500 (  1215 PWs)   bands (ev):

    -5.1414   1.9083   5.0289   5.0289   7.6380   9.2307   9.2307  12.3274

          k = 0.2250 0.2250 0.2250 (  1215 PWs)   bands (ev):

    -5.2836   2.3484   5.1139   5.1139   7.7327   9.1695   9.1695  11.8948

          k = 0.2000 0.2000 0.2000 (  1215 PWs)   bands (ev):

    -5.4126   2.7986   5.2040   5.2040   7.8317   9.0811   9.0811  11.4508

          k = 0.1750 0.1750 0.1750 (  1221 PWs)   bands (ev):

    -5.5277   3.2555   5.2974   5.2974   7.9326   8.9701   8.9701  11.0010

          k = 0.1500 0.1500 0.1500 (  1209 PWs)   bands (ev):

    -5.6283   3.7153   5.3919   5.3919   8.0327   8.8440   8.8440  10.5497

          k = 0.1250 0.1250 0.1250 (  1218 PWs)   bands (ev):

    -5.7140   4.1720   5.4846   5.4846   8.1280   8.7123   8.7123  10.1024

          k = 0.1000 0.1000 0.1000 (  1224 PWs)   bands (ev):

    -5.7845   4.6168   5.5716   5.5716   8.2137   8.5849   8.5849   9.6681

          k = 0.0750 0.0750 0.0750 (  1239 PWs)   bands (ev):

    -5.8396   5.0347   5.6481   5.6481   8.2830   8.4718   8.4718   9.2635

          k = 0.0500 0.0500 0.0500 (  1243 PWs)   bands (ev):

    -5.8790   5.3987   5.7087   5.7087   8.3248   8.3825   8.3825   8.9213

          k = 0.0250 0.0250 0.0250 (  1243 PWs)   bands (ev):

    -5.9027   5.6620   5.7478   5.7478   8.3238   8.3250   8.3250   8.6993

          k = 0.0000 0.0000 0.0000 (  1243 PWs)   bands (ev):

    -5.9106   5.7614   5.7614   5.7614   8.3051   8.3051   8.3051   8.6323

          k = 0.0333 0.0000 0.0000 (  1243 PWs)   bands (ev):

    -5.9059   5.7248   5.7415   5.7415   8.2935   8.3309   8.3309   8.6682

          k = 0.0667 0.0000 0.0000 (  1243 PWs)   bands (ev):

    -5.8919   5.6204   5.6841   5.6841   8.2592   8.4056   8.4056   8.7702

          k = 0.1000 0.0000 0.0000 (  1239 PWs)   bands (ev):

    -5.8685   5.4607   5.5953   5.5953   8.2040   8.5233   8.5233   8.9238

          k = 0.1333 0.0000 0.0000 (  1239 PWs)   bands (ev):

    -5.8357   5.2601   5.4827   5.4827   8.1306   8.6762   8.6762   9.1118

          k = 0.1667 0.0000 0.0000 (  1227 PWs)   bands (ev):

    -5.7936   5.0307   5.3535   5.3535   8.0420   8.8572   8.8572   9.3166

          k = 0.2000 0.0000 0.0000 (  1219 PWs)   bands (ev):

    -5.7422   4.7814   5.2135   5.2135   7.9417   9.0602   9.0602   9.5203

          k = 0.2333 0.0000 0.0000 (  1219 PWs)   bands (ev):

    -5.6815   4.5183   5.0674   5.0674   7.8327   9.2805   9.2805   9.7018

          k = 0.2667 0.0000 0.0000 (  1219 PWs)   bands (ev):

    -5.6116   4.2456   4.9185   4.9185   7.7179   9.5146   9.5146   9.8347

          k = 0.3000 0.0000 0.0000 (  1215 PWs)   bands (ev):

    -5.5325   3.9664   4.7695   4.7695   7.6001   9.7598   9.7598   9.8913

          k = 0.3333 0.0000 0.0000 (  1219 PWs)   bands (ev):

    -5.4443   3.6825   4.6221   4.6221   7.4813   9.8561  10.0141  10.0141

          k = 0.3667 0.0000 0.0000 (  1211 PWs)   bands (ev):

    -5.3470   3.3955   4.4779   4.4779   7.3636   9.7383  10.2759  10.2759

          k = 0.4000 0.0000 0.0000 (  1219 PWs)   bands (ev):

    -5.2408   3.1062   4.3379   4.3379   7.2485   9.5626  10.5441  10.5441

          k = 0.4333 0.0000 0.0000 (  1211 PWs)   bands (ev):

    -5.1255   2.8156   4.2029   4.2029   7.1374   9.3528  10.8176  10.8176

          k = 0.4667 0.0000 0.0000 (  1207 PWs)   bands (ev):

    -5.0015   2.5242   4.0736   4.0736   7.0314   9.1262  11.0958  11.0958

          k = 0.5000 0.0000 0.0000 (  1198 PWs)   bands (ev):

    -4.8687   2.2325   3.9506   3.9506   6.9315   8.8935  11.3780  11.3780

          k = 0.5333 0.0000 0.0000 (  1206 PWs)   bands (ev):

    -4.7272   1.9408   3.8341   3.8341   6.8386   8.6617  11.6638  11.6638

          k = 0.5667 0.0000 0.0000 (  1222 PWs)   bands (ev):

    -4.5772   1.6497   3.7247   3.7247   6.7533   8.4351  11.9527  11.9527

          k = 0.6000 0.0000 0.0000 (  1214 PWs)   bands (ev):

    -4.4188   1.3594   3.6225   3.6225   6.6763   8.2166  12.2445  12.2445

          k = 0.6333 0.0000 0.0000 (  1218 PWs)   bands (ev):

    -4.2520   1.0704   3.5279   3.5279   6.6082   8.0081  12.5389  12.5389

          k = 0.6667 0.0000 0.0000 (  1218 PWs)   bands (ev):

    -4.0772   0.7829   3.4409   3.4409   6.5493   7.8109  12.8357  12.8357

          k = 0.7000 0.0000 0.0000 (  1218 PWs)   bands (ev):

    -3.8943   0.4974   3.3618   3.3618   6.5003   7.6259  13.1344  13.1344

          k = 0.7333 0.0000 0.0000 (  1218 PWs)   bands (ev):

    -3.7037   0.2142   3.2908   3.2908   6.4613   7.4537  13.4350  13.4350

          k = 0.7667 0.0000 0.0000 (  1206 PWs)   bands (ev):

    -3.5053  -0.0662   3.2278   3.2278   6.4329   7.2946  13.7367  13.7367

          k = 0.8000 0.0000 0.0000 (  1202 PWs)   bands (ev):

    -3.2996  -0.3436   3.1731   3.1731   6.4154   7.1488  14.0389  14.0389

          k = 0.8333 0.0000 0.0000 (  1198 PWs)   bands (ev):

    -3.0866  -0.6175   3.1266   3.1266   6.4090   7.0165  14.3402  14.3402

          k = 0.8667 0.0000 0.0000 (  1210 PWs)   bands (ev):

    -2.8666  -0.8876   3.0886   3.0886   6.4140   6.8975  14.6380  14.6380

          k = 0.9000 0.0000 0.0000 (  1210 PWs)   bands (ev):

    -2.6399  -1.1534   3.0589   3.0589   6.4308   6.7920  14.9268  14.9268

          k = 0.9333 0.0000 0.0000 (  1210 PWs)   bands (ev):

    -2.4067  -1.4146   3.0377   3.0377   6.4596   6.6997  15.1943  15.1943

          k = 0.9667 0.0000 0.0000 (  1202 PWs)   bands (ev):

    -2.1672  -1.6709   3.0249   3.0249   6.5007   6.6205  15.4084  15.4084

          k = 1.0000 0.0000 0.0000 (  1186 PWs)   bands (ev):

    -1.9218  -1.9218   3.0207   3.0207   6.5542   6.5542  15.4986  15.4986

          k = 1.0000 0.0250 0.0250 (  1202 PWs)   bands (ev):

    -1.9243  -1.9161   2.9859   3.0249   6.5591   6.6069  15.4454  15.4662

          k = 1.0000 0.0500 0.0500 (  1202 PWs)   bands (ev):

    -1.9320  -1.8988   2.8883   3.0376   6.5736   6.7586  15.2982  15.3734

          k = 1.0000 0.0750 0.0750 (  1202 PWs)   bands (ev):

    -1.9456  -1.8700   2.7439   3.0586   6.5977   6.9938  15.0835  15.2311

          k = 1.0000 0.1000 0.1000 (  1202 PWs)   bands (ev):

    -1.9663  -1.8297   2.5715   3.0880   6.6313   7.2948  14.8261  15.0518

          k = 1.0000 0.1250 0.1250 (  1202 PWs)   bands (ev):

    -1.9957  -1.7780   2.3876   3.1256   6.6744   7.6464  14.5439  14.8467

          k = 1.0000 0.1500 0.1500 (  1204 PWs)   bands (ev):

    -2.0355  -1.7147   2.2054   3.1712   6.7267   8.0372  14.2483  14.6246

          k = 1.0000 0.1750 0.1750 (  1202 PWs)   bands (ev):

    -2.0879  -1.6400   2.0349   3.2248   6.7882   8.4589  13.9464  14.3919

          k = 1.0000 0.2000 0.2000 (  1190 PWs)   bands (ev):

    -2.1548  -1.5539   1.8836   3.2861   6.8585   8.9055  13.6428  14.1534

          k = 1.0000 0.2250 0.2250 (  1202 PWs)   bands (ev):

    -2.2376  -1.4564   1.7568   3.3549   6.9373   9.3723  13.3407  13.9125

          k = 1.0000 0.2500 0.2500 (  1202 PWs)   bands (ev):

    -2.3373  -1.3475   1.6584   3.4309   7.0243   9.8557  13.0422  13.5782

          k = 0.9667 0.2417 0.2417 (  1203 PWs)   bands (ev):

    -2.3400  -1.3495   1.7007   3.4087   6.9999   9.6987  13.0747  13.4018

          k = 0.9333 0.2333 0.2333 (  1200 PWs)   bands (ev):

    -2.4203  -1.2766   1.7692   3.3950   6.9873   9.5550  13.0070  13.1823

          k = 0.9000 0.2250 0.2250 (  1202 PWs)   bands (ev):

    -2.5579  -1.1454   1.8601   3.3901   6.9863   9.4254  12.8895  12.9629

          k = 0.8667 0.2167 0.2167 (  1204 PWs)   bands (ev):

    -2.7288  -0.9770   1.9701   3.3941   6.9964   9.3109  12.7448  12.7511

          k = 0.8333 0.2083 0.2083 (  1206 PWs)   bands (ev):

    -2.9169  -0.7848   2.0963   3.4070   7.0170   9.2123  12.5285  12.6041

          k = 0.8000 0.2000 0.2000 (  1207 PWs)   bands (ev):

    -3.1132  -0.5761   2.2363   3.4290   7.0471   9.1311  12.3143  12.4540

          k = 0.7667 0.1917 0.1917 (  1205 PWs)   bands (ev):

    -3.3123  -0.3545   2.3878   3.4600   7.0855   9.0686  12.1023  12.3029

          k = 0.7333 0.1833 0.1833 (  1205 PWs)   bands (ev):

    -3.5107  -0.1222   2.5490   3.5001   7.1308   9.0263  11.8927  12.1513

          k = 0.7000 0.1750 0.1750 (  1207 PWs)   bands (ev):

    -3.7062   0.1194   2.7183   3.5492   7.1810   9.0059  11.6858  11.9990

          k = 0.6667 0.1667 0.1667 (  1204 PWs)   bands (ev):

    -3.8972   0.3697   2.8939   3.6073   7.2344   9.0090  11.4820  11.8450

          k = 0.6333 0.1583 0.1583 (  1208 PWs)   bands (ev):

    -4.0824   0.6279   3.0745   3.6743   7.2890   9.0366  11.2818  11.6881

          k = 0.6000 0.1500 0.1500 (  1212 PWs)   bands (ev):

    -4.2610   0.8938   3.2589   3.7501   7.3435   9.0888  11.0864  11.5267

          k = 0.5667 0.1417 0.1417 (  1215 PWs)   bands (ev):

    -4.4323   1.1668   3.4456   3.8346   7.3969   9.1641  10.8972  11.3594

          k = 0.5333 0.1333 0.1333 (  1214 PWs)   bands (ev):

    -4.5956   1.4468   3.6336   3.9276   7.4491   9.2586  10.7174  11.1844

          k = 0.5000 0.1250 0.1250 (  1223 PWs)   bands (ev):

    -4.7505   1.7333   3.8217   4.0288   7.5006   9.3641  10.5526  11.0007

          k = 0.4667 0.1167 0.1167 (  1220 PWs)   bands (ev):

    -4.8967   2.0260   4.0088   4.1379   7.5524   9.4647  10.4146  10.8075

          k = 0.4333 0.1083 0.1083 (  1222 PWs)   bands (ev):

    -5.0338   2.3245   4.1938   4.2546   7.6055   9.5315  10.3257  10.6046

          k = 0.4000 0.1000 0.1000 (  1216 PWs)   bands (ev):

    -5.1615   2.6283   4.3757   4.3782   7.6609   9.5302  10.3103  10.3930

          k = 0.3667 0.0917 0.0917 (  1214 PWs)   bands (ev):

    -5.2797   2.9366   4.5083   4.5532   7.7194   9.4572  10.1739  10.3547

          k = 0.3333 0.0833 0.0833 (  1212 PWs)   bands (ev):

    -5.3881   3.2488   4.6440   4.7252   7.7813   9.3414   9.9496  10.4021

          k = 0.3000 0.0750 0.0750 (  1216 PWs)   bands (ev):

    -5.4866   3.5636   4.7841   4.8905   7.8465   9.2075   9.7228  10.3893

          k = 0.2667 0.0667 0.0667 (  1215 PWs)   bands (ev):

    -5.5751   3.8796   4.9274   5.0476   7.9145   9.0689   9.4967  10.2775

          k = 0.2333 0.0583 0.0583 (  1213 PWs)   bands (ev):

    -5.6533   4.1945   5.0718   5.1948   7.9839   8.9325   9.2749  10.0739

          k = 0.2000 0.0500 0.0500 (  1218 PWs)   bands (ev):

    -5.7214   4.5053   5.2148   5.3304   8.0530   8.8027   9.0616   9.8138

          k = 0.1667 0.0417 0.0417 (  1230 PWs)   bands (ev):

    -5.7791   4.8072   5.3529   5.4521   8.1193   8.6823   8.8617   9.5312

          k = 0.1333 0.0333 0.0333 (  1236 PWs)   bands (ev):

    -5.8264   5.0929   5.4813   5.5575   8.1800   8.5734   8.6812   9.2521

          k = 0.1000 0.0250 0.0250 (  1240 PWs)   bands (ev):

    -5.8632   5.3511   5.5940   5.6438   8.2319   8.4773   8.5271   8.9997

          k = 0.0667 0.0167 0.0167 (  1243 PWs)   bands (ev):

    -5.8895   5.5645   5.6833   5.7081   8.2717   8.3944   8.4077   8.7991

          k = 0.0333 0.0083 0.0083 (  1243 PWs)   bands (ev):

    -5.9054   5.7094   5.7412   5.7479   8.2966   8.3308   8.3314   8.6737

          k = 0.0000 0.0000 0.0000 (  1243 PWs)   bands (ev):

    -5.9106   5.7614   5.7614   5.7614   8.3051   8.3051   8.3051   8.6323

     Writing output data file ./outdir/si.save/

     init_run     :      1.18s CPU      1.23s WALL (       1 calls)
     electrons    :     17.66s CPU     20.39s WALL (       1 calls)

     Called by init_run:
     wfcinit      :      0.00s CPU      0.00s WALL (       1 calls)
     potinit      :      0.56s CPU      0.58s WALL (       1 calls)
     hinit0       :      0.51s CPU      0.51s WALL (       1 calls)

     Called by electrons:
     c_bands      :     17.66s CPU     20.37s WALL (       1 calls)
     v_of_rho     :      0.06s CPU      0.07s WALL (       1 calls)
     newd         :      0.07s CPU      0.09s WALL (       1 calls)
     PAW_pot      :      0.49s CPU      0.51s WALL (       1 calls)

     Called by c_bands:
     init_us_2    :      0.07s CPU      0.07s WALL (      91 calls)
     cegterg      :     16.64s CPU     15.58s WALL (     201 calls)

     Called by *egterg:
     cdiaghg      :      0.36s CPU      0.37s WALL (    3033 calls)
     h_psi        :     13.16s CPU     12.73s WALL (    3234 calls)
     s_psi        :      0.89s CPU      0.57s WALL (    3234 calls)
     g_psi        :      0.30s CPU      0.31s WALL (    2942 calls)

     Called by h_psi:
     h_psi:calbec :      0.89s CPU      0.65s WALL (    3234 calls)
     vloc_psi     :     11.29s CPU     11.43s WALL (    3234 calls)
     add_vuspsi   :      0.92s CPU      0.60s WALL (    3234 calls)

     General routines
     calbec       :      0.89s CPU      0.64s WALL (    3234 calls)
     fft          :      0.03s CPU      0.03s WALL (      13 calls)
     ffts         :      0.00s CPU      0.00s WALL (       1 calls)
     fftw         :      9.73s CPU      9.83s WALL (   36174 calls)
     interpolate  :      0.00s CPU      0.00s WALL (       1 calls)
     davcio       :      0.00s CPU      3.85s WALL (     182 calls)

     Parallel routines

     PWSCF        :     19.97s CPU     25.05s WALL


   This run was terminated on:  12:25: 2  20Jul2025            

=------------------------------------------------------------------------------=
   JOB DONE.
=------------------------------------------------------------------------------=
