
     Program PWSCF v.6.6 starts on 20Jul2025 at 12:24: 2 

     This program is part of the open-source Quantum ESPRESSO suite
     for quantum simulation of materials; please cite
         "P. Giannozzi et al., J. Phys.:Condens. Matter 21 395502 (2009);
         "P. Giannozzi et al., J. Phys.:Condens. Matter 29 465901 (2017);
          URL http://www.quantum-espresso.org", 
     in publications or presentations arising from this work. More details at
     http://www.quantum-espresso.org/quote

     Parallel version (MPI), running on     1 processors

     MPI processes distributed on     1 nodes
     Fft bands division:     nmany     =       1
     Waiting for input...
     Reading input from standard input

     Current dimensions of program PWSCF are:
     Max number of different atomic species (ntypx) = 10
     Max number of k-points (npk) =  40000
     Max angular momentum in pseudopotentials (lmaxx) =  3

     Atomic positions and unit cell read from directory:
     ./outdir/si.save/

     file Si.pbe-n-kjpaw_psl.1.0.0.UPF: wavefunction(s)  3S 3P renormalized

     Subspace diagonalization in iterative solution of the eigenvalue problem:
     a serial algorithm will be used


     G-vector sticks info
     --------------------
     sticks:   dense  smooth     PW     G-vecs:    dense   smooth      PW
     Sum        1189     595    199                27317     9577    1759



     bravais-lattice index     =            2
     lattice parameter (alat)  =      10.4109  a.u.
     unit-cell volume          =     282.1019 (a.u.)^3
     number of atoms/cell      =            2
     number of atomic types    =            1
     number of electrons       =         8.00
     number of Kohn-Sham states=            8
     kinetic-energy cutoff     =      40.0000  Ry
     charge density cutoff     =     320.0000  Ry
     Exchange-correlation= SLA PW PBX PBC
                           (   1   4   3   4   0   0   0)

     celldm(1)=  10.410909  celldm(2)=   0.000000  celldm(3)=   0.000000
     celldm(4)=   0.000000  celldm(5)=   0.000000  celldm(6)=   0.000000

     crystal axes: (cart. coord. in units of alat)
               a(1) = (  -0.500000   0.000000   0.500000 )  
               a(2) = (   0.000000   0.500000   0.500000 )  
               a(3) = (  -0.500000   0.500000   0.000000 )  

     reciprocal axes: (cart. coord. in units 2 pi/alat)
               b(1) = ( -1.000000 -1.000000  1.000000 )  
               b(2) = (  1.000000  1.000000  1.000000 )  
               b(3) = ( -1.000000  1.000000 -1.000000 )  


     PseudoPot. # 1 for Si read from file:
     ./Si.pbe-n-kjpaw_psl.1.0.0.UPF
     MD5 check sum: c39c59da582df4a0d9f10159256ea34e
     Pseudo is Projector augmented-wave + core cor, Zval =  4.0
     Generated using "atomic" code by A. Dal Corso v.6.3
     Shape of augmentation charge: PSQ
     Using radial grid of 1141 points,  6 beta functions with: 
                l(1) =   0
                l(2) =   0
                l(3) =   1
                l(4) =   1
                l(5) =   2
                l(6) =   2
     Q(r) pseudized with 0 coefficients 


     atomic species   valence    mass     pseudopotential
        Si             4.00    28.08550     Si( 1.00)

     48 Sym. Ops., with inversion, found (24 have fractional translation)



   Cartesian axes

     site n.     atom                  positions (alat units)
         1           Si  tau(   1) = (   0.0000000   0.0000000   0.0000000  )
         2           Si  tau(   2) = (   0.2500000   0.2500000   0.2500000  )

     number of k points=    72 (tetrahedron method)
                       cart. coord. in units 2pi/alat
        k(    1) = (   0.0000000   0.0000000   0.0000000), wk =   0.0011574
        k(    2) = (  -0.0833333   0.0833333  -0.0833333), wk =   0.0092593
        k(    3) = (  -0.1666667   0.1666667  -0.1666667), wk =   0.0092593
        k(    4) = (  -0.2500000   0.2500000  -0.2500000), wk =   0.0092593
        k(    5) = (  -0.3333333   0.3333333  -0.3333333), wk =   0.0092593
        k(    6) = (  -0.4166667   0.4166667  -0.4166667), wk =   0.0092593
        k(    7) = (   0.5000000  -0.5000000   0.5000000), wk =   0.0046296
        k(    8) = (   0.0000000   0.1666667   0.0000000), wk =   0.0069444
        k(    9) = (  -0.0833333   0.2500000  -0.0833333), wk =   0.0277778
        k(   10) = (  -0.1666667   0.3333333  -0.1666667), wk =   0.0277778
        k(   11) = (  -0.2500000   0.4166667  -0.2500000), wk =   0.0277778
        k(   12) = (  -0.3333333   0.5000000  -0.3333333), wk =   0.0277778
        k(   13) = (   0.5833333  -0.4166667   0.5833333), wk =   0.0277778
        k(   14) = (   0.5000000  -0.3333333   0.5000000), wk =   0.0277778
        k(   15) = (   0.4166667  -0.2500000   0.4166667), wk =   0.0277778
        k(   16) = (   0.3333333  -0.1666667   0.3333333), wk =   0.0277778
        k(   17) = (   0.2500000  -0.0833333   0.2500000), wk =   0.0277778
        k(   18) = (   0.1666667  -0.0000000   0.1666667), wk =   0.0138889
        k(   19) = (   0.0000000   0.3333333   0.0000000), wk =   0.0069444
        k(   20) = (  -0.0833333   0.4166667  -0.0833333), wk =   0.0277778
        k(   21) = (  -0.1666667   0.5000000  -0.1666667), wk =   0.0277778
        k(   22) = (  -0.2500000   0.5833333  -0.2500000), wk =   0.0277778
        k(   23) = (   0.6666667  -0.3333333   0.6666667), wk =   0.0277778
        k(   24) = (   0.5833333  -0.2500000   0.5833333), wk =   0.0277778
        k(   25) = (   0.5000000  -0.1666667   0.5000000), wk =   0.0277778
        k(   26) = (   0.4166667  -0.0833333   0.4166667), wk =   0.0277778
        k(   27) = (   0.3333333   0.0000000   0.3333333), wk =   0.0138889
        k(   28) = (   0.0000000   0.5000000   0.0000000), wk =   0.0069444
        k(   29) = (  -0.0833333   0.5833333  -0.0833333), wk =   0.0277778
        k(   30) = (  -0.1666667   0.6666667  -0.1666667), wk =   0.0277778
        k(   31) = (   0.7500000  -0.2500000   0.7500000), wk =   0.0277778
        k(   32) = (   0.6666667  -0.1666667   0.6666667), wk =   0.0277778
        k(   33) = (   0.5833333  -0.0833333   0.5833333), wk =   0.0277778
        k(   34) = (   0.5000000   0.0000000   0.5000000), wk =   0.0138889
        k(   35) = (   0.0000000   0.6666667   0.0000000), wk =   0.0069444
        k(   36) = (  -0.0833333   0.7500000  -0.0833333), wk =   0.0277778
        k(   37) = (   0.8333333  -0.1666667   0.8333333), wk =   0.0277778
        k(   38) = (   0.7500000  -0.0833333   0.7500000), wk =   0.0277778
        k(   39) = (   0.6666667   0.0000000   0.6666667), wk =   0.0138889
        k(   40) = (   0.0000000   0.8333333   0.0000000), wk =   0.0069444
        k(   41) = (   0.9166667  -0.0833333   0.9166667), wk =   0.0277778
        k(   42) = (   0.8333333   0.0000000   0.8333333), wk =   0.0138889
        k(   43) = (   0.0000000  -1.0000000   0.0000000), wk =   0.0034722
        k(   44) = (  -0.1666667   0.3333333   0.0000000), wk =   0.0277778
        k(   45) = (  -0.2500000   0.4166667  -0.0833333), wk =   0.0555556
        k(   46) = (  -0.3333333   0.5000000  -0.1666667), wk =   0.0555556
        k(   47) = (   0.5833333  -0.4166667   0.7500000), wk =   0.0555556
        k(   48) = (   0.5000000  -0.3333333   0.6666667), wk =   0.0277778
        k(   49) = (  -0.1666667   0.5000000   0.0000000), wk =   0.0277778
        k(   50) = (  -0.2500000   0.5833333  -0.0833333), wk =   0.0555556
        k(   51) = (   0.6666667  -0.3333333   0.8333333), wk =   0.0555556
        k(   52) = (   0.5833333  -0.2500000   0.7500000), wk =   0.0555556
        k(   53) = (   0.5000000  -0.1666667   0.6666667), wk =   0.0555556
        k(   54) = (   0.4166667  -0.0833333   0.5833333), wk =   0.0555556
        k(   55) = (   0.3333333   0.0000000   0.5000000), wk =   0.0277778
        k(   56) = (  -0.1666667   0.6666667  -0.0000000), wk =   0.0277778
        k(   57) = (   0.7500000  -0.2500000   0.9166667), wk =   0.0555556
        k(   58) = (   0.6666667  -0.1666667   0.8333333), wk =   0.0555556
        k(   59) = (   0.5833333  -0.0833333   0.7500000), wk =   0.0555556
        k(   60) = (   0.5000000   0.0000000   0.6666667), wk =   0.0277778
        k(   61) = (   0.8333333  -0.1666667   1.0000000), wk =   0.0277778
        k(   62) = (   0.7500000  -0.0833333   0.9166667), wk =   0.0555556
        k(   63) = (   0.6666667   0.0000000   0.8333333), wk =   0.0277778
        k(   64) = (  -0.1666667  -1.0000000   0.0000000), wk =   0.0138889
        k(   65) = (   0.6666667  -0.3333333   1.0000000), wk =   0.0277778
        k(   66) = (   0.5833333  -0.2500000   0.9166667), wk =   0.0555556
        k(   67) = (   0.5000000  -0.1666667   0.8333333), wk =   0.0277778
        k(   68) = (   0.6666667  -0.1666667   1.0000000), wk =   0.0277778
        k(   69) = (   0.5833333  -0.0833333   0.9166667), wk =   0.0555556
        k(   70) = (   0.5000000   0.0000000   0.8333333), wk =   0.0277778
        k(   71) = (  -0.3333333  -1.0000000   0.0000000), wk =   0.0138889
        k(   72) = (  -0.5000000  -1.0000000   0.0000000), wk =   0.0069444

     Dense  grid:    27317 G-vectors     FFT dimensions: (  48,  48,  48)

     Smooth grid:     9577 G-vectors     FFT dimensions: (  32,  32,  32)

     Estimated max dynamical RAM per process >      91.49 MB

     The potential is recalculated from file :
     ./outdir/si.save/charge-density

     Starting wfcs are    8 randomized atomic wfcs
     Checking if some PAW data can be deallocated... 

     Band Structure Calculation
     Davidson diagonalization with overlap

     ethr =  1.25E-10,  avg # of iterations = 32.8

     total cpu time spent up to now is       16.2 secs

     End of band structure calculation

          k = 0.0000 0.0000 0.0000 (  1243 PWs)   bands (ev):

    -5.9106   5.7614   5.7614   5.7614   8.3051   8.3051   8.3051   8.6323

          k =-0.0833 0.0833-0.0833 (  1236 PWs)   bands (ev):

    -5.8230   4.8997   5.6241   5.6241   8.2623   8.5073   8.5073   9.3935

          k =-0.1667 0.1667-0.1667 (  1215 PWs)   bands (ev):

    -5.5629   3.4087   5.3289   5.3289   7.9662   8.9293   8.9293  10.8505

          k =-0.2500 0.2500-0.2500 (  1215 PWs)   bands (ev):

    -5.1414   1.9083   5.0289   5.0289   7.6380   9.2307   9.2307  12.3274

          k =-0.3333 0.3333-0.3333 (  1218 PWs)   bands (ev):

    -4.5887   0.5493   4.7942   4.7942   7.3713   9.2575   9.2575  13.4409

          k =-0.4167 0.4167-0.4167 (  1191 PWs)   bands (ev):

    -3.9994  -0.5343   4.6490   4.6490   7.2028   9.1655   9.1655  13.5058

          k = 0.5000-0.5000 0.5000 (  1194 PWs)   bands (ev):

    -3.6868  -1.0131   4.6001   4.6001   7.1456   9.1181   9.1181  13.4376

          k = 0.0000 0.1667 0.0000 (  1227 PWs)   bands (ev):

    -5.7936   5.0307   5.3535   5.3535   8.0420   8.8572   8.8572   9.3166

          k =-0.0833 0.2500-0.0833 (  1213 PWs)   bands (ev):

    -5.5904   3.8351   5.0042   5.1698   8.0565   8.8409   9.3762  10.3726

          k =-0.1667 0.3333-0.1667 (  1208 PWs)   bands (ev):

    -5.2212   2.3808   4.7009   4.8539   8.1212   8.8725   9.7606  11.0677

          k =-0.2500 0.4167-0.2500 (  1211 PWs)   bands (ev):

    -4.7070   0.9942   4.4958   4.5108   7.9370   9.0180   9.8085  11.6595

          k =-0.3333 0.5000-0.3333 (  1211 PWs)   bands (ev):

    -4.1106  -0.1879   4.2242   4.4060   7.7599   9.0209   9.6399  12.6706

          k = 0.5833-0.4167 0.5833 (  1197 PWs)   bands (ev):

    -3.6490  -0.9197   4.0278   4.4330   7.6729   9.0368   9.4561  13.5718

          k = 0.5000-0.3333 0.5000 (  1201 PWs)   bands (ev):

    -3.7618  -0.7517   3.9390   4.5689   7.6937   9.1523   9.3483  13.6788

          k = 0.4167-0.2500 0.4167 (  1203 PWs)   bands (ev):

    -4.3121   0.1766   3.9702   4.7989   7.8216   9.3051   9.3461  13.0724

          k = 0.3333-0.1667 0.3333 (  1210 PWs)   bands (ev):

    -4.8932   1.4418   4.1306   5.0978   8.0446   9.2028   9.4687  12.0834

          k = 0.2500-0.0833 0.2500 (  1218 PWs)   bands (ev):

    -5.3626   2.8504   4.4318   5.4158   8.3289   8.8955   9.2274  11.2364

          k = 0.1667-0.0000 0.1667 (  1219 PWs)   bands (ev):

    -5.6776   4.1655   4.9412   5.6441   8.5375   8.5472   8.6855  10.2444

          k = 0.0000 0.3333 0.0000 (  1219 PWs)   bands (ev):

    -5.4443   3.6825   4.6221   4.6221   7.4813   9.8561  10.0141  10.0141

          k =-0.0833 0.4167-0.0833 (  1212 PWs)   bands (ev):

    -5.1295   2.6390   4.2741   4.2994   7.4993   9.5365  10.3780  10.5636

          k =-0.1667 0.5000-0.1667 (  1218 PWs)   bands (ev):

    -4.6606   1.3831   3.8299   4.0868   7.7300   9.6871  10.2511  10.7484

          k =-0.2500 0.5833-0.2500 (  1208 PWs)   bands (ev):

    -4.0793   0.2005   3.4032   4.0034   7.7708   9.8754  10.5976  10.7603

          k = 0.6667-0.3333 0.6667 (  1201 PWs)   bands (ev):

    -3.5272  -0.6885   3.0714   4.0528   7.7924   9.7636  10.3458  12.0668

          k = 0.5833-0.2500 0.5833 (  1202 PWs)   bands (ev):

    -3.4207  -0.8385   2.8688   4.2276   7.9168   9.7329  10.1278  13.5699

          k = 0.5000-0.1667 0.5000 (  1192 PWs)   bands (ev):

    -3.8912  -0.1187   2.8217   4.5096   8.1513   9.8027   9.9555  12.8478

          k = 0.4167-0.0833 0.4167 (  1207 PWs)   bands (ev):

    -4.4869   0.9768   2.9733   4.8621   8.4463   9.7104   9.8663  11.7081

          k = 0.3333 0.0000 0.3333 (  1209 PWs)   bands (ev):

    -4.9972   2.0760   3.4563   5.2111   8.6628   9.2701   9.5352  11.2509

          k = 0.0000 0.5000 0.0000 (  1198 PWs)   bands (ev):

    -4.8687   2.2325   3.9506   3.9506   6.9315   8.8935  11.3780  11.3780

          k =-0.0833 0.5833-0.0833 (  1218 PWs)   bands (ev):

    -4.4488   1.3549   3.5024   3.7121   7.0139   8.5617  11.6338  11.8580

          k =-0.1667 0.6667-0.1667 (  1204 PWs)   bands (ev):

    -3.8972   0.3697   2.8939   3.6073   7.2344   9.0090  11.4820  11.8450

          k = 0.7500-0.2500 0.7500 (  1209 PWs)   bands (ev):

    -3.3033  -0.5113   2.3669   3.6429   7.3225  10.1747  11.3015  11.5923

          k = 0.6667-0.1667 0.6667 (  1198 PWs)   bands (ev):

    -3.0006  -0.9001   2.0196   3.8146   7.4901  11.1121  11.3052  11.7578

          k = 0.5833-0.0833 0.5833 (  1195 PWs)   bands (ev):

    -3.3557  -0.4336   1.9122   4.1063   7.7914  10.9968  11.0712  12.7305

          k = 0.5000 0.0000 0.5000 (  1203 PWs)   bands (ev):

    -3.9483   0.3544   2.1721   4.4814   8.1798  10.4617  10.7953  11.6852

          k = 0.0000 0.6667 0.0000 (  1218 PWs)   bands (ev):

    -4.0772   0.7829   3.4409   3.4409   6.5493   7.8109  12.8357  12.8357

          k =-0.0833 0.7500-0.0833 (  1211 PWs)   bands (ev):

    -3.5633   0.0238   2.9804   3.3027   6.7107   7.6767  13.1257  13.2143

          k = 0.8333-0.1667 0.8333 (  1207 PWs)   bands (ev):

    -2.9619  -0.7163   2.2908   3.3077   6.8891   8.4876  13.0032  13.0601

          k = 0.7500-0.0833 0.7500 (  1202 PWs)   bands (ev):

    -2.5211  -1.1818   1.7419   3.4548   7.0585   9.8908  12.7149  12.8384

          k = 0.6667 0.0000 0.6667 (  1196 PWs)   bands (ev):

    -2.7845  -0.9031   1.5495   3.7314   7.3671  11.5167  12.0900  12.6184

          k = 0.0000 0.8333 0.0000 (  1198 PWs)   bands (ev):

    -3.0866  -0.6175   3.1266   3.1266   6.4090   7.0165  14.3402  14.3402

          k = 0.9167-0.0833 0.9167 (  1200 PWs)   bands (ev):

    -2.4975  -1.2813   2.7210   3.0938   6.6111   7.1617  14.5884  14.6471

          k = 0.8333 0.0000 0.8333 (  1202 PWs)   bands (ev):

    -2.0690  -1.6662   2.0899   3.2061   6.7667   8.3154  14.0474  14.4703

          k = 0.0000-1.0000 0.0000 (  1186 PWs)   bands (ev):

    -1.9218  -1.9218   3.0207   3.0207   6.5542   6.5542  15.4986  15.4986

          k =-0.1667 0.3333 0.0000 (  1210 PWs)   bands (ev):

    -5.3318   3.0382   4.2024   5.0731   8.0881   9.1309   9.8340  10.5819

          k =-0.2500 0.4167-0.0833 (  1212 PWs)   bands (ev):

    -4.9124   1.8405   3.6806   4.8099   8.3425   9.1332  10.2395  10.6280

          k =-0.3333 0.5000-0.1667 (  1207 PWs)   bands (ev):

    -4.3613   0.5914   3.4087   4.4980   8.3403   9.1038  10.3038  11.2458

          k = 0.5833-0.4167 0.7500 (  1204 PWs)   bands (ev):

    -3.7703  -0.4502   3.2776   4.2644   8.2580   8.9726  10.2358  12.4092

          k = 0.5000-0.3333 0.6667 (  1198 PWs)   bands (ev):

    -3.4532  -0.9214   3.2400   4.1779   8.2254   8.9080  10.1949  13.6591

          k =-0.1667 0.5000 0.0000 (  1220 PWs)   bands (ev):

    -4.7628   1.8568   3.5328   4.1955   7.5641   9.2504  10.4731  11.2647

          k =-0.2500 0.5833-0.0833 (  1208 PWs)   bands (ev):

    -4.2517   0.8468   3.0092   3.9229   7.8893   9.4758  10.2169  11.6480

          k = 0.6667-0.3333 0.8333 (  1204 PWs)   bands (ev):

    -3.6547  -0.1584   2.6558   3.7243   8.0093   9.9010  10.4842  11.6387

          k = 0.5833-0.2500 0.7500 (  1200 PWs)   bands (ev):

    -3.1864  -0.8260   2.4163   3.7072   8.1279   9.6368  11.5282  11.9233

          k = 0.5000-0.1667 0.6667 (  1200 PWs)   bands (ev):

    -3.3142  -0.6493   2.3071   3.8708   8.3571   9.4627  11.4363  12.3235

          k = 0.4167-0.0833 0.5833 (  1203 PWs)   bands (ev):

    -3.8739   0.1826   2.3896   4.1720   8.6825   9.3317  10.9452  11.4320

          k = 0.3333 0.0000 0.5000 (  1214 PWs)   bands (ev):

    -4.4504   1.1228   2.7975   4.5348   8.9362   9.0146  10.3955  10.9819

          k =-0.1667 0.6667-0.0000 (  1220 PWs)   bands (ev):

    -3.9833   0.6162   3.0419   3.4512   7.1866   8.2742  11.6655  12.7881

          k = 0.7500-0.2500 0.9167 (  1206 PWs)   bands (ev):

    -3.4033  -0.1890   2.4808   3.2458   7.5191   8.7749  11.3789  13.1470

          k = 0.6667-0.1667 0.8333 (  1198 PWs)   bands (ev):

    -2.8441  -0.8694   1.9831   3.2525   7.6706  10.0346  11.0898  13.0695

          k = 0.5833-0.0833 0.7500 (  1196 PWs)   bands (ev):

    -2.7803  -0.9336   1.7099   3.4415   7.9140  10.7485  11.6997  12.3216

          k = 0.5000 0.0000 0.6667 (  1194 PWs)   bands (ev):

    -3.2912  -0.3677   1.7946   3.7706   8.2817  10.3328  11.1584  12.4653

          k = 0.8333-0.1667 1.0000 (  1205 PWs)   bands (ev):

    -3.0140  -0.6550   2.7692   2.9596   7.0305   7.5483  13.0093  14.3302

          k = 0.7500-0.0833 0.9167 (  1198 PWs)   bands (ev):

    -2.4134  -1.2755   2.1783   2.9169   7.3210   8.4110  12.7056  14.1103

          k = 0.6667 0.0000 0.8333 (  1201 PWs)   bands (ev):

    -2.2747  -1.3783   1.7077   3.1053   7.5482   9.8986  12.2584  12.6437

          k =-0.1667-1.0000 0.0000 (  1204 PWs)   bands (ev):

    -1.8878  -1.8878   2.7362   2.7362   7.1401   7.1401  14.4238  14.4238

          k = 0.6667-0.3333 1.0000 (  1206 PWs)   bands (ev):

    -3.7109   0.1810   2.3469   3.5660   8.5957   9.4801   9.8788  12.6548

          k = 0.5833-0.2500 0.9167 (  1204 PWs)   bands (ev):

    -3.1160  -0.5579   2.0111   3.2474   8.9725   9.4829  10.4249  13.0750

          k = 0.5000-0.1667 0.8333 (  1198 PWs)   bands (ev):

    -2.7761  -0.9630   1.9183   3.1250   9.1378   9.2315  11.7716  12.1100

          k = 0.6667-0.1667 1.0000 (  1201 PWs)   bands (ev):

    -2.8134  -0.7961   2.1597   2.7563   8.4392   8.8530  11.0172  13.8484

          k = 0.5833-0.0833 0.9167 (  1204 PWs)   bands (ev):

    -2.3168  -1.2831   1.8638   2.6088   8.7794  10.0305  10.7364  12.1082

          k = 0.5000 0.0000 0.8333 (  1197 PWs)   bands (ev):

    -2.5396  -1.0594   1.7446   2.8226   9.0737  10.1884  10.6559  11.8630

          k =-0.3333-1.0000 0.0000 (  1200 PWs)   bands (ev):

    -1.8153  -1.8153   2.2822   2.2822   8.5141   8.5141  12.3658  12.3658

          k =-0.5000-1.0000 0.0000 (  1216 PWs)   bands (ev):

    -1.7766  -1.7766   2.0880   2.0880  10.0370  10.0370  10.6102  10.6102

     the Fermi energy is     6.1321 ev
     (compare with:     5.7611 eV, computed in scf)

     Writing output data file ./outdir/si.save/

     init_run     :      1.17s CPU      1.25s WALL (       1 calls)
     electrons    :     14.13s CPU     13.74s WALL (       1 calls)

     Called by init_run:
     wfcinit      :      0.00s CPU      0.00s WALL (       1 calls)
     potinit      :      0.56s CPU      0.59s WALL (       1 calls)
     hinit0       :      0.51s CPU      0.53s WALL (       1 calls)

     Called by electrons:
     c_bands      :     14.11s CPU     13.72s WALL (       1 calls)
     v_of_rho     :      0.06s CPU      0.07s WALL (       1 calls)
     newd         :      0.07s CPU      0.09s WALL (       1 calls)
     PAW_pot      :      0.49s CPU      0.51s WALL (       1 calls)

     Called by c_bands:
     init_us_2    :      0.04s CPU      0.04s WALL (      72 calls)
     cegterg      :     13.40s CPU     13.00s WALL (     155 calls)

     Called by *egterg:
     cdiaghg      :      0.30s CPU      0.30s WALL (    2430 calls)
     h_psi        :     10.52s CPU     10.50s WALL (    2585 calls)
     s_psi        :      0.72s CPU      0.48s WALL (    2585 calls)
     g_psi        :      0.24s CPU      0.25s WALL (    2358 calls)

     Called by h_psi:
     h_psi:calbec :      0.74s CPU      0.54s WALL (    2585 calls)
     vloc_psi     :      8.99s CPU      9.42s WALL (    2585 calls)
     add_vuspsi   :      0.74s CPU      0.49s WALL (    2585 calls)

     General routines
     calbec       :      0.74s CPU      0.53s WALL (    2585 calls)
     fft          :      0.03s CPU      0.03s WALL (      13 calls)
     ffts         :      0.00s CPU      0.00s WALL (       1 calls)
     fftw         :      7.75s CPU      8.13s WALL (   28544 calls)
     interpolate  :      0.00s CPU      0.00s WALL (       1 calls)
     davcio       :      0.00s CPU      0.01s WALL (     144 calls)

     Parallel routines

     PWSCF        :     16.51s CPU     16.84s WALL


   This run was terminated on:  12:24:19  20Jul2025            

=------------------------------------------------------------------------------=
   JOB DONE.
=------------------------------------------------------------------------------=
