
     Program PWSCF v.6.6 starts on  2Apr2025 at 12:48:34 

     This program is part of the open-source Quantum ESPRESSO suite
     for quantum simulation of materials; please cite
         "P. Giannozzi et al., J. Phys.:Condens. Matter 21 395502 (2009);
         "P. Giannozzi et al., J. Phys.:Condens. Matter 29 465901 (2017);
          URL http://www.quantum-espresso.org", 
     in publications or presentations arising from this work. More details at
     http://www.quantum-espresso.org/quote

     Parallel version (MPI), running on     1 processors

     MPI processes distributed on     1 nodes
     Fft bands division:     nmany     =       1
     Reading input from Al.scf.60.666.in

     Current dimensions of program PWSCF are:
     Max number of different atomic species (ntypx) = 10
     Max number of k-points (npk) =  40000
     Max angular momentum in pseudopotentials (lmaxx) =  3

     Subspace diagonalization in iterative solution of the eigenvalue problem:
     a serial algorithm will be used


     G-vector sticks info
     --------------------
     sticks:   dense  smooth     PW     G-vecs:    dense   smooth      PW
     Sum         859     859    253                16625    16625    2733



     bravais-lattice index     =            2
     lattice parameter (alat)  =      10.2000  a.u.
     unit-cell volume          =     265.3020 (a.u.)^3
     number of atoms/cell      =            1
     number of atomic types    =            1
     number of electrons       =         3.00
     number of Kohn-Sham states=           12
     kinetic-energy cutoff     =      60.0000  Ry
     charge density cutoff     =     240.0000  Ry
     convergence threshold     =      1.0E-06
     mixing beta               =       0.7000
     number of iterations used =            8  plain     mixing
     Exchange-correlation= PBE
                           (   1   4   3   4   0   0   0)
     Non magnetic calculation with spin-orbit


     celldm(1)=  10.200000  celldm(2)=   0.000000  celldm(3)=   0.000000
     celldm(4)=   0.000000  celldm(5)=   0.000000  celldm(6)=   0.000000

     crystal axes: (cart. coord. in units of alat)
               a(1) = (  -0.500000   0.000000   0.500000 )  
               a(2) = (   0.000000   0.500000   0.500000 )  
               a(3) = (  -0.500000   0.500000   0.000000 )  

     reciprocal axes: (cart. coord. in units 2 pi/alat)
               b(1) = ( -1.000000 -1.000000  1.000000 )  
               b(2) = (  1.000000  1.000000  1.000000 )  
               b(3) = ( -1.000000  1.000000 -1.000000 )  


     PseudoPot. # 1 for Al read from file:
     ../pseudo/Al.rel-pbe-nl-rrkjus_psl.1.0.0.UPF
     MD5 check sum: 49f37f8fe9babba23f1e8de5949893df
     Pseudo is Ultrasoft + core correction, Zval =  3.0
     Generated using "atomic" code by A. Dal Corso v.6.3
     Using radial grid of 1135 points,  6 beta functions with: 
                l(1) =   0
                l(2) =   0
                l(3) =   1
                l(4) =   1
                l(5) =   1
                l(6) =   1
     Q(r) pseudized with 0 coefficients 


     atomic species   valence    mass     pseudopotential
        Al             3.00    26.98000     Al( 1.00)

     48 Sym. Ops., with inversion, found



   Cartesian axes

     site n.     atom                  positions (alat units)
         1           Al  tau(   1) = (   0.0000000   0.0000000   0.0000000  )

     number of k points=    16  Marzari-Vanderbilt smearing, width (Ry)=  0.0200
                       cart. coord. in units 2pi/alat
        k(    1) = (   0.0000000   0.0000000   0.0000000), wk =   0.0046296
        k(    2) = (  -0.1666667   0.1666667  -0.1666667), wk =   0.0370370
        k(    3) = (  -0.3333333   0.3333333  -0.3333333), wk =   0.0370370
        k(    4) = (   0.5000000  -0.5000000   0.5000000), wk =   0.0185185
        k(    5) = (   0.0000000   0.3333333   0.0000000), wk =   0.0277778
        k(    6) = (  -0.1666667   0.5000000  -0.1666667), wk =   0.1111111
        k(    7) = (   0.6666667  -0.3333333   0.6666667), wk =   0.1111111
        k(    8) = (   0.5000000  -0.1666667   0.5000000), wk =   0.1111111
        k(    9) = (   0.3333333   0.0000000   0.3333333), wk =   0.0555556
        k(   10) = (   0.0000000   0.6666667   0.0000000), wk =   0.0277778
        k(   11) = (   0.8333333  -0.1666667   0.8333333), wk =   0.1111111
        k(   12) = (   0.6666667  -0.0000000   0.6666667), wk =   0.0555556
        k(   13) = (   0.0000000  -1.0000000   0.0000000), wk =   0.0138889
        k(   14) = (   0.6666667  -0.3333333   1.0000000), wk =   0.1111111
        k(   15) = (   0.5000000  -0.1666667   0.8333333), wk =   0.1111111
        k(   16) = (  -0.3333333  -1.0000000   0.0000000), wk =   0.0555556

     Dense  grid:    16625 G-vectors     FFT dimensions: (  36,  36,  36)

     Estimated max dynamical RAM per process >      73.49 MB

     Initial potential from superposition of free atoms

     starting charge    2.99774, renormalised to    3.00000
     Starting wfcs are    8 randomized atomic wfcs +    4 random wfcs

     total cpu time spent up to now is        1.7 secs

     Self-consistent Calculation

     iteration #  1     ecut=    60.00 Ry     beta= 0.70
     Davidson diagonalization with overlap
     ethr =  1.00E-02,  avg # of iterations =  6.6

     Threshold (ethr) on eigenvalues was too large:
     Diagonalizing with lowered threshold

     Davidson diagonalization with overlap
     ethr =  1.46E-04,  avg # of iterations =  4.2

     total cpu time spent up to now is        6.1 secs

     total energy              =      -4.93855289 Ry
     estimated scf accuracy    <       0.00405739 Ry

     iteration #  2     ecut=    60.00 Ry     beta= 0.70
     Davidson diagonalization with overlap
     ethr =  1.35E-04,  avg # of iterations =  1.0

     total cpu time spent up to now is        7.6 secs

     total energy              =      -4.93865248 Ry
     estimated scf accuracy    <       0.00019547 Ry

     iteration #  3     ecut=    60.00 Ry     beta= 0.70
     Davidson diagonalization with overlap
     ethr =  6.52E-06,  avg # of iterations =  4.8

     total cpu time spent up to now is        9.5 secs

     total energy              =      -4.93868344 Ry
     estimated scf accuracy    <       0.00000118 Ry

     iteration #  4     ecut=    60.00 Ry     beta= 0.70
     Davidson diagonalization with overlap
     ethr =  3.93E-08,  avg # of iterations =  3.7

     total cpu time spent up to now is       11.3 secs

     End of self-consistent calculation

          k = 0.0000 0.0000 0.0000 (  2085 PWs)   bands (ev):

    -5.0856  -5.0856   7.4381   7.4381   7.4787   7.4787   7.4787   7.4787
    10.2726  10.2726  10.2726  10.2729

          k =-0.1667 0.1667-0.1667 (  2088 PWs)   bands (ev):

    -4.6857  -4.6857   4.9794   4.9794   7.0402   7.0403   7.0643   7.0643
     9.7877   9.7883  10.8994  10.9012

          k =-0.3333 0.3333-0.3333 (  2090 PWs)   bands (ev):

    -3.5268  -3.5268   1.6975   1.6975   6.5761   6.5762   6.5994   6.5995
     9.2230   9.2231  10.2066  10.2075

          k = 0.5000-0.5000 0.5000 (  2060 PWs)   bands (ev):

    -2.2644  -2.2644  -0.3131  -0.3131   6.4300   6.4300   6.4537   6.4537
     9.0641   9.0642   9.6997   9.6997

          k = 0.0000 0.3333 0.0000 (  2061 PWs)   bands (ev):

    -4.5518  -4.5518   5.8848   5.8848   6.1062   6.1062   6.1250   6.1251
     8.5077   8.5078  10.1731  10.1732

          k =-0.1667 0.5000-0.1667 (  2078 PWs)   bands (ev):

    -3.6390  -3.6390   2.9788   2.9788   5.4076   5.4076   5.5408   5.5408
     8.2883   8.2884   9.9220   9.9221

          k = 0.6667-0.3333 0.6667 (  2078 PWs)   bands (ev):

    -2.1841  -2.1841   0.3526   0.3526   4.4682   4.4682   5.5929   5.5929
     8.0745   8.0745  11.1223  11.1229

          k = 0.5000-0.1667 0.5000 (  2082 PWs)   bands (ev):

    -2.6780  -2.6780   1.0959   1.0959   4.0157   4.0157   6.2333   6.2333
     8.8157   8.8157  10.8567  10.8567

          k = 0.3333 0.0000 0.3333 (  2083 PWs)   bands (ev):

    -4.0287  -4.0287   3.8557   3.8557   4.4775   4.4775   7.1159   7.1160
    10.2963  10.2964  10.7520  10.7528

          k = 0.0000 0.6667 0.0000 (  2080 PWs)   bands (ev):

    -2.9880  -2.9880   2.9839   2.9839   4.7448   4.7448   4.7622   4.7622
     6.9147   6.9147   7.1254   7.1254

          k = 0.8333-0.1667 0.8333 (  2092 PWs)   bands (ev):

    -1.7024  -1.7024   1.3830   1.3830   2.7826   2.7826   4.6240   4.6240
     6.7406   6.7406   8.8888   8.8888

          k = 0.6667-0.0000 0.6667 (  2079 PWs)   bands (ev):

    -1.3780  -1.3780   1.3213   1.3213   1.4516   1.4516   5.1772   5.1772
     7.3667   7.3668  12.1185  12.1186

          k = 0.0000-1.0000 0.0000 (  2100 PWs)   bands (ev):

    -1.0500  -1.0500   0.4006   0.4006   4.2654   4.2654   4.2823   4.2823
     6.2291   6.2291   6.3681   6.3681

          k = 0.6667-0.3333 1.0000 (  2092 PWs)   bands (ev):

    -2.5197  -2.5197   2.2129   2.2129   2.9855   2.9855   4.6013   4.6013
     9.2561   9.2561   9.6636   9.6636

          k = 0.5000-0.1667 0.8333 (  2088 PWs)   bands (ev):

    -1.3521  -1.3521   0.7020   0.7020   2.6478   2.6478   3.8832   3.8832
     9.3370   9.3372  10.4629  10.4630

          k =-0.3333-1.0000 0.0000 (  2090 PWs)   bands (ev):

    -0.8555  -0.8555   0.9272   0.9272   2.4712   2.4712   2.8856   2.8856
     8.7795   8.7796   9.1781   9.1782

     the Fermi energy is     1.3486 ev

!    total energy              =      -4.93868455 Ry
     estimated scf accuracy    <       0.00000005 Ry
     smearing contrib. (-TS)   =      -0.00050357 Ry
     internal energy E=F+TS    =      -4.93818098 Ry

     The total energy is F=E-TS. E is the sum of the following terms:
     one-electron contribution =       1.29250101 Ry
     hartree contribution      =       0.08431817 Ry
     xc contribution           =      -2.26953363 Ry
     ewald contribution        =      -4.04546654 Ry

     convergence has been achieved in   4 iterations

     Writing output data file ./temp/Al.save/

     init_run     :      1.03s CPU      1.04s WALL (       1 calls)
     electrons    :      9.91s CPU      9.63s WALL (       1 calls)

     Called by init_run:
     wfcinit      :      0.55s CPU      0.55s WALL (       1 calls)
     potinit      :      0.04s CPU      0.04s WALL (       1 calls)
     hinit0       :      0.40s CPU      0.41s WALL (       1 calls)

     Called by electrons:
     c_bands      :      8.18s CPU      7.88s WALL (       5 calls)
     sum_band     :      1.50s CPU      1.47s WALL (       5 calls)
     v_of_rho     :      0.14s CPU      0.14s WALL (       5 calls)
     newd         :      0.12s CPU      0.14s WALL (       5 calls)
     mix_rho      :      0.03s CPU      0.05s WALL (       5 calls)

     Called by c_bands:
     init_us_2    :      0.11s CPU      0.11s WALL (     176 calls)
     cegterg      :      7.80s CPU      7.50s WALL (      80 calls)

     Called by *egterg:
     cdiaghg      :      0.08s CPU      0.08s WALL (     387 calls)
     h_psi        :      6.70s CPU      6.70s WALL (     419 calls)
     s_psi        :      0.16s CPU      0.10s WALL (     419 calls)
     g_psi        :      0.12s CPU      0.12s WALL (     323 calls)

     Called by h_psi:
     h_psi:calbec :      0.15s CPU      0.15s WALL (     419 calls)
     vloc_psi     :      6.36s CPU      6.41s WALL (     419 calls)
     add_vuspsi   :      0.16s CPU      0.11s WALL (     419 calls)

     General routines
     calbec       :      0.20s CPU      0.20s WALL (     499 calls)
     fft          :      0.06s CPU      0.06s WALL (      68 calls)
     ffts         :      0.02s CPU      0.02s WALL (      20 calls)
     fftw         :      6.48s CPU      6.52s WALL (   13568 calls)

     Parallel routines

     PWSCF        :     11.55s CPU     11.48s WALL


   This run was terminated on:  12:48:46   2Apr2025            

=------------------------------------------------------------------------------=
   JOB DONE.
=------------------------------------------------------------------------------=
