
     Program PWSCF v.6.6 starts on  2Apr2025 at 12:49: 5 

     This program is part of the open-source Quantum ESPRESSO suite
     for quantum simulation of materials; please cite
         "P. Giannozzi et al., J. Phys.:Condens. Matter 21 395502 (2009);
         "P. Giannozzi et al., J. Phys.:Condens. Matter 29 465901 (2017);
          URL http://www.quantum-espresso.org", 
     in publications or presentations arising from this work. More details at
     http://www.quantum-espresso.org/quote

     Parallel version (MPI), running on     1 processors

     MPI processes distributed on     1 nodes
     Fft bands division:     nmany     =       1
     Reading input from Al.scf.60.101010.in

     Current dimensions of program PWSCF are:
     Max number of different atomic species (ntypx) = 10
     Max number of k-points (npk) =  40000
     Max angular momentum in pseudopotentials (lmaxx) =  3

     Subspace diagonalization in iterative solution of the eigenvalue problem:
     a serial algorithm will be used


     G-vector sticks info
     --------------------
     sticks:   dense  smooth     PW     G-vecs:    dense   smooth      PW
     Sum         859     859    253                16625    16625    2741



     bravais-lattice index     =            2
     lattice parameter (alat)  =      10.2000  a.u.
     unit-cell volume          =     265.3020 (a.u.)^3
     number of atoms/cell      =            1
     number of atomic types    =            1
     number of electrons       =         3.00
     number of Kohn-Sham states=           12
     kinetic-energy cutoff     =      60.0000  Ry
     charge density cutoff     =     240.0000  Ry
     convergence threshold     =      1.0E-06
     mixing beta               =       0.7000
     number of iterations used =            8  plain     mixing
     Exchange-correlation= PBE
                           (   1   4   3   4   0   0   0)
     Non magnetic calculation with spin-orbit


     celldm(1)=  10.200000  celldm(2)=   0.000000  celldm(3)=   0.000000
     celldm(4)=   0.000000  celldm(5)=   0.000000  celldm(6)=   0.000000

     crystal axes: (cart. coord. in units of alat)
               a(1) = (  -0.500000   0.000000   0.500000 )  
               a(2) = (   0.000000   0.500000   0.500000 )  
               a(3) = (  -0.500000   0.500000   0.000000 )  

     reciprocal axes: (cart. coord. in units 2 pi/alat)
               b(1) = ( -1.000000 -1.000000  1.000000 )  
               b(2) = (  1.000000  1.000000  1.000000 )  
               b(3) = ( -1.000000  1.000000 -1.000000 )  


     PseudoPot. # 1 for Al read from file:
     ../pseudo/Al.rel-pbe-nl-rrkjus_psl.1.0.0.UPF
     MD5 check sum: 49f37f8fe9babba23f1e8de5949893df
     Pseudo is Ultrasoft + core correction, Zval =  3.0
     Generated using "atomic" code by A. Dal Corso v.6.3
     Using radial grid of 1135 points,  6 beta functions with: 
                l(1) =   0
                l(2) =   0
                l(3) =   1
                l(4) =   1
                l(5) =   1
                l(6) =   1
     Q(r) pseudized with 0 coefficients 


     atomic species   valence    mass     pseudopotential
        Al             3.00    26.98000     Al( 1.00)

     48 Sym. Ops., with inversion, found



   Cartesian axes

     site n.     atom                  positions (alat units)
         1           Al  tau(   1) = (   0.0000000   0.0000000   0.0000000  )

     number of k points=    47  Marzari-Vanderbilt smearing, width (Ry)=  0.0200
                       cart. coord. in units 2pi/alat
        k(    1) = (   0.0000000   0.0000000   0.0000000), wk =   0.0010000
        k(    2) = (  -0.1000000   0.1000000  -0.1000000), wk =   0.0080000
        k(    3) = (  -0.2000000   0.2000000  -0.2000000), wk =   0.0080000
        k(    4) = (  -0.3000000   0.3000000  -0.3000000), wk =   0.0080000
        k(    5) = (  -0.4000000   0.4000000  -0.4000000), wk =   0.0080000
        k(    6) = (   0.5000000  -0.5000000   0.5000000), wk =   0.0040000
        k(    7) = (   0.0000000   0.2000000   0.0000000), wk =   0.0060000
        k(    8) = (  -0.1000000   0.3000000  -0.1000000), wk =   0.0240000
        k(    9) = (  -0.2000000   0.4000000  -0.2000000), wk =   0.0240000
        k(   10) = (  -0.3000000   0.5000000  -0.3000000), wk =   0.0240000
        k(   11) = (   0.6000000  -0.4000000   0.6000000), wk =   0.0240000
        k(   12) = (   0.5000000  -0.3000000   0.5000000), wk =   0.0240000
        k(   13) = (   0.4000000  -0.2000000   0.4000000), wk =   0.0240000
        k(   14) = (   0.3000000  -0.1000000   0.3000000), wk =   0.0240000
        k(   15) = (   0.2000000   0.0000000   0.2000000), wk =   0.0120000
        k(   16) = (   0.0000000   0.4000000   0.0000000), wk =   0.0060000
        k(   17) = (  -0.1000000   0.5000000  -0.1000000), wk =   0.0240000
        k(   18) = (  -0.2000000   0.6000000  -0.2000000), wk =   0.0240000
        k(   19) = (   0.7000000  -0.3000000   0.7000000), wk =   0.0240000
        k(   20) = (   0.6000000  -0.2000000   0.6000000), wk =   0.0240000
        k(   21) = (   0.5000000  -0.1000000   0.5000000), wk =   0.0240000
        k(   22) = (   0.4000000   0.0000000   0.4000000), wk =   0.0120000
        k(   23) = (   0.0000000   0.6000000   0.0000000), wk =   0.0060000
        k(   24) = (  -0.1000000   0.7000000  -0.1000000), wk =   0.0240000
        k(   25) = (   0.8000000  -0.2000000   0.8000000), wk =   0.0240000
        k(   26) = (   0.7000000  -0.1000000   0.7000000), wk =   0.0240000
        k(   27) = (   0.6000000  -0.0000000   0.6000000), wk =   0.0120000
        k(   28) = (   0.0000000   0.8000000   0.0000000), wk =   0.0060000
        k(   29) = (   0.9000000  -0.1000000   0.9000000), wk =   0.0240000
        k(   30) = (   0.8000000   0.0000000   0.8000000), wk =   0.0120000
        k(   31) = (   0.0000000  -1.0000000   0.0000000), wk =   0.0030000
        k(   32) = (  -0.2000000   0.4000000   0.0000000), wk =   0.0240000
        k(   33) = (  -0.3000000   0.5000000  -0.1000000), wk =   0.0480000
        k(   34) = (   0.6000000  -0.4000000   0.8000000), wk =   0.0480000
        k(   35) = (   0.5000000  -0.3000000   0.7000000), wk =   0.0240000
        k(   36) = (  -0.2000000   0.6000000   0.0000000), wk =   0.0240000
        k(   37) = (   0.7000000  -0.3000000   0.9000000), wk =   0.0480000
        k(   38) = (   0.6000000  -0.2000000   0.8000000), wk =   0.0480000
        k(   39) = (   0.5000000  -0.1000000   0.7000000), wk =   0.0480000
        k(   40) = (   0.4000000   0.0000000   0.6000000), wk =   0.0240000
        k(   41) = (   0.8000000  -0.2000000   1.0000000), wk =   0.0240000
        k(   42) = (   0.7000000  -0.1000000   0.9000000), wk =   0.0480000
        k(   43) = (   0.6000000   0.0000000   0.8000000), wk =   0.0240000
        k(   44) = (  -0.2000000  -1.0000000   0.0000000), wk =   0.0120000
        k(   45) = (   0.6000000  -0.2000000   1.0000000), wk =   0.0240000
        k(   46) = (   0.5000000  -0.1000000   0.9000000), wk =   0.0240000
        k(   47) = (  -0.4000000  -1.0000000   0.0000000), wk =   0.0120000

     Dense  grid:    16625 G-vectors     FFT dimensions: (  36,  36,  36)

     Estimated max dynamical RAM per process >      97.13 MB

     Initial potential from superposition of free atoms

     starting charge    2.99774, renormalised to    3.00000
     Starting wfcs are    8 randomized atomic wfcs +    4 random wfcs

     total cpu time spent up to now is        2.8 secs

     Self-consistent Calculation

     iteration #  1     ecut=    60.00 Ry     beta= 0.70
     Davidson diagonalization with overlap
     ethr =  1.00E-02,  avg # of iterations =  6.4

     Threshold (ethr) on eigenvalues was too large:
     Diagonalizing with lowered threshold

     Davidson diagonalization with overlap
     ethr =  1.43E-04,  avg # of iterations =  5.3

     total cpu time spent up to now is       15.8 secs

     total energy              =      -4.93853574 Ry
     estimated scf accuracy    <       0.00396434 Ry

     iteration #  2     ecut=    60.00 Ry     beta= 0.70
     Davidson diagonalization with overlap
     ethr =  1.32E-04,  avg # of iterations =  1.2

     total cpu time spent up to now is       19.8 secs

     total energy              =      -4.93863047 Ry
     estimated scf accuracy    <       0.00019804 Ry

     iteration #  3     ecut=    60.00 Ry     beta= 0.70
     Davidson diagonalization with overlap
     c_bands:  1 eigenvalues not converged
     ethr =  6.60E-06,  avg # of iterations =  5.3

     total cpu time spent up to now is       25.3 secs

     total energy              =      -4.93866198 Ry
     estimated scf accuracy    <       0.00000134 Ry

     iteration #  4     ecut=    60.00 Ry     beta= 0.70
     Davidson diagonalization with overlap
     ethr =  4.47E-08,  avg # of iterations =  3.4

     total cpu time spent up to now is       30.3 secs

     End of self-consistent calculation

          k = 0.0000 0.0000 0.0000 (  2085 PWs)   bands (ev):

    -5.0834  -5.0834   7.4412   7.4412   7.4817   7.4817   7.4817   7.4817
    10.2735  10.2735  10.2735  10.2738

          k =-0.1000 0.1000-0.1000 (  2079 PWs)   bands (ev):

    -4.9389  -4.9389   6.3131   6.3131   7.2715   7.2715   7.2967   7.2967
    10.0844  10.0846  10.5967  10.5974

          k =-0.2000 0.2000-0.2000 (  2079 PWs)   bands (ev):

    -4.5091  -4.5091   4.2940   4.2940   6.9288   6.9289   6.9525   6.9525
     9.6438   9.6438  10.9094  10.9119

          k =-0.3000 0.3000-0.3000 (  2072 PWs)   bands (ev):

    -3.8099  -3.8099   2.3098   2.3098   6.6465   6.6466   6.6697   6.6698
     9.3020   9.3021  10.4059  10.4068

          k =-0.4000 0.4000-0.4000 (  2078 PWs)   bands (ev):

    -2.9062  -2.9062   0.6042   0.6042   6.4833   6.4834   6.5067   6.5068
     9.1186   9.1187   9.8923   9.8927

          k = 0.5000-0.5000 0.5000 (  2060 PWs)   bands (ev):

    -2.2622  -2.2622  -0.3108  -0.3108   6.4324   6.4324   6.4560   6.4560
     9.0649   9.0652   9.7017   9.7018

          k = 0.0000 0.2000 0.0000 (  2073 PWs)   bands (ev):

    -4.8907  -4.8907   6.7786   6.7786   6.8114   6.8114   6.8220   6.8220
     9.3656   9.3657  11.1653  11.1676

          k =-0.1000 0.3000-0.1000 (  2072 PWs)   bands (ev):

    -4.5556  -4.5556   5.0331   5.0331   6.3460   6.3460   6.7197   6.7197
     9.2697   9.2697  10.8365  10.8367

          k =-0.2000 0.4000-0.2000 (  2073 PWs)   bands (ev):

    -3.9444  -3.9444   3.0451   3.0451   6.0435   6.0435   6.2909   6.2909
     9.1654   9.1654  10.4839  10.4840

          k =-0.3000 0.5000-0.3000 (  2081 PWs)   bands (ev):

    -3.0960  -3.0960   1.2402   1.2402   5.8465   5.8465   5.9483   5.9483
     8.8388   8.8388  10.3006  10.3007

          k = 0.6000-0.4000 0.6000 (  2076 PWs)   bands (ev):

    -2.2428  -2.2428  -0.0581  -0.0581   5.4852   5.4852   6.0563   6.0563
     8.8083   8.8083  10.1529  10.1529

          k = 0.5000-0.3000 0.5000 (  2077 PWs)   bands (ev):

    -2.4846  -2.4846   0.2741   0.2741   5.2668   5.2668   6.3413   6.3413
     9.1292   9.1294  10.0960  10.1419

          k = 0.4000-0.2000 0.4000 (  2075 PWs)   bands (ev):

    -3.4004  -3.4004   1.8115   1.8115   5.2426   5.2426   6.7445   6.7445
     9.7186   9.7194  10.1952  10.1999

          k = 0.3000-0.1000 0.3000 (  2075 PWs)   bands (ev):

    -4.1781  -4.1781   3.6987   3.6987   5.4481   5.4481   7.1698   7.1699
    10.1710  10.1717  10.7022  10.7079

          k = 0.2000 0.0000 0.2000 (  2071 PWs)   bands (ev):

    -4.6992  -4.6992   5.5291   5.5291   6.0406   6.0406   7.4367   7.4367
    10.2196  10.2197  10.6593  10.6594

          k = 0.0000 0.4000 0.0000 (  2073 PWs)   bands (ev):

    -4.3163  -4.3163   5.3724   5.3724   5.7786   5.7786   5.7971   5.7972
     8.1137   8.1138   9.3975   9.3976

          k =-0.1000 0.5000-0.1000 (  2065 PWs)   bands (ev):

    -3.7981  -3.7981   3.8477   3.8477   5.3021   5.3021   5.4151   5.4151
     8.0428   8.0429   8.9429   8.9429

          k =-0.2000 0.6000-0.2000 (  2072 PWs)   bands (ev):

    -3.0270  -3.0270   2.0903   2.0903   4.5849   4.5849   5.2709   5.2709
     7.7613   7.7613  10.0928  10.0930

          k = 0.7000-0.3000 0.7000 (  2078 PWs)   bands (ev):

    -2.1263  -2.1263   0.6152   0.6152   3.9706   3.9706   5.3657   5.3657
     7.7440   7.7440  11.3117  11.3118

          k = 0.6000-0.2000 0.6000 (  2092 PWs)   bands (ev):

    -1.9009  -1.9009   0.3141   0.3141   3.5601   3.5601   5.6879   5.6879
     8.0748   8.0748  11.4240  11.4247

          k = 0.5000-0.1000 0.5000 (  2084 PWs)   bands (ev):

    -2.7374  -2.7374   1.5801   1.5801   3.4055   3.4055   6.1987   6.1987
     8.7235   8.7235  11.2824  11.2824

          k = 0.4000 0.0000 0.4000 (  2085 PWs)   bands (ev):

    -3.5739  -3.5739   3.1149   3.1149   3.7395   3.7395   6.7913   6.7914
     9.6362   9.6362  11.1699  11.1699

          k = 0.0000 0.6000 0.0000 (  2060 PWs)   bands (ev):

    -3.3750  -3.3750   3.6199   3.6199   4.9549   4.9550   4.9725   4.9725
     7.1530   7.1530   7.5556   7.5556

          k =-0.1000 0.7000-0.1000 (  2086 PWs)   bands (ev):

    -2.6945  -2.6945   2.5312   2.5312   3.9665   3.9665   4.7463   4.7463
     6.9850   6.9851   7.9639   7.9640

          k = 0.8000-0.2000 0.8000 (  2097 PWs)   bands (ev):

    -1.8373  -1.8373   1.3745   1.3745   2.8140   2.8140   4.7771   4.7771
     6.9412   6.9412   9.6106   9.6106

          k = 0.7000-0.1000 0.7000 (  2090 PWs)   bands (ev):

    -1.2987  -1.2987   0.7692   0.7692   2.0817   2.0817   5.0532   5.0532
     7.2298   7.2298  11.4939  11.4939

          k = 0.6000-0.0000 0.6000 (  2095 PWs)   bands (ev):

    -1.8968  -1.8968   1.5030   1.5030   1.9104   1.9104   5.5515   5.5515
     7.8342   7.8342  12.5106  12.5107

          k = 0.0000 0.8000 0.0000 (  2084 PWs)   bands (ev):

    -2.1163  -2.1163   1.7180   1.7180   4.4412   4.4412   4.4582   4.4582
     6.5466   6.5466   6.5649   6.5649

          k = 0.9000-0.1000 0.9000 (  2091 PWs)   bands (ev):

    -1.3820  -1.3820   0.9229   0.9229   3.3784   3.3784   4.4032   4.4032
     6.4557   6.4557   7.5392   7.5392

          k = 0.8000 0.0000 0.8000 (  2097 PWs)   bands (ev):

    -0.9530  -0.9530   0.7813   0.7813   2.0547   2.0547   4.6089   4.6089
     6.6848   6.6848   9.4390   9.4390

          k = 0.0000-1.0000 0.0000 (  2100 PWs)   bands (ev):

    -1.0468  -1.0468   0.4015   0.4015   4.2676   4.2676   4.2845   4.2845
     6.2357   6.2357   6.3676   6.3676

          k =-0.2000 0.4000 0.0000 (  2075 PWs)   bands (ev):

    -4.1290  -4.1290   4.2836   4.2836   4.9218   4.9218   6.6002   6.6002
     9.3041   9.3041   9.9579   9.9581

          k =-0.3000 0.5000-0.1000 (  2081 PWs)   bands (ev):

    -3.4358  -3.4358   2.6018   2.6018   4.3997   4.3997   6.0805   6.0805
     9.2197   9.2197  10.2626  10.2626

          k = 0.6000-0.4000 0.8000 (  2072 PWs)   bands (ev):

    -2.5432  -2.5432   0.9517   0.9517   4.2877   4.2877   5.5579   5.5579
     9.0359   9.0359  10.0396  10.0396

          k = 0.5000-0.3000 0.7000 (  2084 PWs)   bands (ev):

    -1.9137  -1.9137   0.0611   0.0611   4.2880   4.2880   5.3350   5.3350
     9.0182   9.0182   9.8145   9.8146

          k =-0.2000 0.6000 0.0000 (  2078 PWs)   bands (ev):

    -3.1975  -3.1975   3.1201   3.1201   4.0446   4.0446   5.0126   5.0126
     8.4234   8.4234   8.4650   8.4650

          k = 0.7000-0.3000 0.9000 (  2080 PWs)   bands (ev):

    -2.3714  -2.3714   1.7905   1.7905   3.3892   3.3892   4.4589   4.4589
     8.3022   8.3022   9.8780   9.8780

          k = 0.6000-0.2000 0.8000 (  2086 PWs)   bands (ev):

    -1.5669  -1.5669   0.6479   0.6479   2.9456   2.9456   4.3945   4.3945
     8.4532   8.4532  10.9576  10.9577

          k = 0.5000-0.1000 0.7000 (  2084 PWs)   bands (ev):

    -1.8048  -1.8048   0.9825   0.9825   2.6543   2.6543   4.7515   4.7515
     8.8593   8.8593  10.8455  10.8456

          k = 0.4000 0.0000 0.6000 (  2089 PWs)   bands (ev):

    -2.6806  -2.6806   2.1992   2.1992   2.8319   2.8319   5.3835   5.3835
     9.4047   9.4047  10.6647  10.6650

          k = 0.8000-0.2000 1.0000 (  2079 PWs)   bands (ev):

    -1.9648  -1.9648   1.7270   1.7270   3.5029   3.5029   3.8290   3.8290
     7.6917   7.6918   7.8733   7.8734

          k = 0.7000-0.1000 0.9000 (  2097 PWs)   bands (ev):

    -1.1877  -1.1877   1.0918   1.0918   2.2947   2.2947   3.7481   3.7481
     7.8742   7.8742   9.5658   9.5658

          k = 0.6000 0.0000 0.8000 (  2099 PWs)   bands (ev):

    -1.1089  -1.1089   1.3470   1.3470   1.4137   1.4137   4.1094   4.1094
     8.2579   8.2580  11.4404  11.4404

          k =-0.2000-1.0000 0.0000 (  2094 PWs)   bands (ev):

    -0.9628  -0.9628   0.5916   0.5916   3.3203   3.3203   3.4826   3.4826
     7.4521   7.4521   7.6875   7.6876

          k = 0.6000-0.2000 1.0000 (  2077 PWs)   bands (ev):

    -1.5576  -1.5576   1.5477   1.5477   2.2755   2.2755   3.5526   3.5526
     9.5025   9.5025  10.1714  10.1715

          k = 0.5000-0.1000 0.9000 (  2096 PWs)   bands (ev):

    -1.0358  -1.0358   1.1171   1.1171   2.0191   2.0191   3.2037   3.2037
     9.6567   9.6569  10.8682  10.8683

          k =-0.4000-1.0000 0.0000 (  2102 PWs)   bands (ev):

    -0.8061  -0.8061   1.1585   1.1585   2.0886   2.0886   2.6972   2.6972
     9.4388   9.4388  10.0006  10.0007

     the Fermi energy is     1.3746 ev

!    total energy              =      -4.93866325 Ry
     estimated scf accuracy    <       0.00000006 Ry
     smearing contrib. (-TS)   =       0.00045987 Ry
     internal energy E=F+TS    =      -4.93912313 Ry

     The total energy is F=E-TS. E is the sum of the following terms:
     one-electron contribution =       1.29140932 Ry
     hartree contribution      =       0.08494682 Ry
     xc contribution           =      -2.27001273 Ry
     ewald contribution        =      -4.04546654 Ry

     convergence has been achieved in   4 iterations

     Writing output data file ./temp/Al.save/

     init_run     :      2.04s CPU      2.05s WALL (       1 calls)
     electrons    :     28.37s CPU     27.49s WALL (       1 calls)

     Called by init_run:
     wfcinit      :      1.54s CPU      1.53s WALL (       1 calls)
     potinit      :      0.04s CPU      0.05s WALL (       1 calls)
     hinit0       :      0.40s CPU      0.41s WALL (       1 calls)

     Called by electrons:
     c_bands      :     24.06s CPU     23.15s WALL (       5 calls)
     sum_band     :      4.08s CPU      4.07s WALL (       5 calls)
     v_of_rho     :      0.14s CPU      0.15s WALL (       5 calls)
     newd         :      0.11s CPU      0.13s WALL (       5 calls)
     mix_rho      :      0.03s CPU      0.05s WALL (       5 calls)

     Called by c_bands:
     init_us_2    :      0.32s CPU      0.32s WALL (     517 calls)
     cegterg      :     22.99s CPU     22.07s WALL (     235 calls)

     Called by *egterg:
     cdiaghg      :      0.24s CPU      0.25s WALL (    1203 calls)
     h_psi        :     19.60s CPU     19.58s WALL (    1297 calls)
     s_psi        :      0.49s CPU      0.32s WALL (    1297 calls)
     g_psi        :      0.36s CPU      0.36s WALL (    1015 calls)

     Called by h_psi:
     h_psi:calbec :      0.44s CPU      0.45s WALL (    1297 calls)
     vloc_psi     :     18.58s CPU     18.70s WALL (    1297 calls)
     add_vuspsi   :      0.50s CPU      0.34s WALL (    1297 calls)

     General routines
     calbec       :      0.58s CPU      0.58s WALL (    1532 calls)
     fft          :      0.06s CPU      0.06s WALL (      68 calls)
     ffts         :      0.02s CPU      0.02s WALL (      20 calls)
     fftw         :     18.97s CPU     19.08s WALL (   40224 calls)

     Parallel routines

     PWSCF        :     31.13s CPU     31.34s WALL


   This run was terminated on:  12:49:37   2Apr2025            

=------------------------------------------------------------------------------=
   JOB DONE.
=------------------------------------------------------------------------------=
