
     Program PWSCF v.6.6 starts on  2Apr2025 at 12:48:46 

     This program is part of the open-source Quantum ESPRESSO suite
     for quantum simulation of materials; please cite
         "P. Giannozzi et al., J. Phys.:Condens. Matter 21 395502 (2009);
         "P. Giannozzi et al., J. Phys.:Condens. Matter 29 465901 (2017);
          URL http://www.quantum-espresso.org", 
     in publications or presentations arising from this work. More details at
     http://www.quantum-espresso.org/quote

     Parallel version (MPI), running on     1 processors

     MPI processes distributed on     1 nodes
     Fft bands division:     nmany     =       1
     Reading input from Al.scf.60.888.in

     Current dimensions of program PWSCF are:
     Max number of different atomic species (ntypx) = 10
     Max number of k-points (npk) =  40000
     Max angular momentum in pseudopotentials (lmaxx) =  3

     Subspace diagonalization in iterative solution of the eigenvalue problem:
     a serial algorithm will be used


     G-vector sticks info
     --------------------
     sticks:   dense  smooth     PW     G-vecs:    dense   smooth      PW
     Sum         859     859    253                16625    16625    2733



     bravais-lattice index     =            2
     lattice parameter (alat)  =      10.2000  a.u.
     unit-cell volume          =     265.3020 (a.u.)^3
     number of atoms/cell      =            1
     number of atomic types    =            1
     number of electrons       =         3.00
     number of Kohn-Sham states=           12
     kinetic-energy cutoff     =      60.0000  Ry
     charge density cutoff     =     240.0000  Ry
     convergence threshold     =      1.0E-06
     mixing beta               =       0.7000
     number of iterations used =            8  plain     mixing
     Exchange-correlation= PBE
                           (   1   4   3   4   0   0   0)
     Non magnetic calculation with spin-orbit


     celldm(1)=  10.200000  celldm(2)=   0.000000  celldm(3)=   0.000000
     celldm(4)=   0.000000  celldm(5)=   0.000000  celldm(6)=   0.000000

     crystal axes: (cart. coord. in units of alat)
               a(1) = (  -0.500000   0.000000   0.500000 )  
               a(2) = (   0.000000   0.500000   0.500000 )  
               a(3) = (  -0.500000   0.500000   0.000000 )  

     reciprocal axes: (cart. coord. in units 2 pi/alat)
               b(1) = ( -1.000000 -1.000000  1.000000 )  
               b(2) = (  1.000000  1.000000  1.000000 )  
               b(3) = ( -1.000000  1.000000 -1.000000 )  


     PseudoPot. # 1 for Al read from file:
     ../pseudo/Al.rel-pbe-nl-rrkjus_psl.1.0.0.UPF
     MD5 check sum: 49f37f8fe9babba23f1e8de5949893df
     Pseudo is Ultrasoft + core correction, Zval =  3.0
     Generated using "atomic" code by A. Dal Corso v.6.3
     Using radial grid of 1135 points,  6 beta functions with: 
                l(1) =   0
                l(2) =   0
                l(3) =   1
                l(4) =   1
                l(5) =   1
                l(6) =   1
     Q(r) pseudized with 0 coefficients 


     atomic species   valence    mass     pseudopotential
        Al             3.00    26.98000     Al( 1.00)

     48 Sym. Ops., with inversion, found



   Cartesian axes

     site n.     atom                  positions (alat units)
         1           Al  tau(   1) = (   0.0000000   0.0000000   0.0000000  )

     number of k points=    29  Marzari-Vanderbilt smearing, width (Ry)=  0.0200
                       cart. coord. in units 2pi/alat
        k(    1) = (   0.0000000   0.0000000   0.0000000), wk =   0.0019531
        k(    2) = (  -0.1250000   0.1250000  -0.1250000), wk =   0.0156250
        k(    3) = (  -0.2500000   0.2500000  -0.2500000), wk =   0.0156250
        k(    4) = (  -0.3750000   0.3750000  -0.3750000), wk =   0.0156250
        k(    5) = (   0.5000000  -0.5000000   0.5000000), wk =   0.0078125
        k(    6) = (   0.0000000   0.2500000   0.0000000), wk =   0.0117188
        k(    7) = (  -0.1250000   0.3750000  -0.1250000), wk =   0.0468750
        k(    8) = (  -0.2500000   0.5000000  -0.2500000), wk =   0.0468750
        k(    9) = (   0.6250000  -0.3750000   0.6250000), wk =   0.0468750
        k(   10) = (   0.5000000  -0.2500000   0.5000000), wk =   0.0468750
        k(   11) = (   0.3750000  -0.1250000   0.3750000), wk =   0.0468750
        k(   12) = (   0.2500000   0.0000000   0.2500000), wk =   0.0234375
        k(   13) = (   0.0000000   0.5000000   0.0000000), wk =   0.0117188
        k(   14) = (  -0.1250000   0.6250000  -0.1250000), wk =   0.0468750
        k(   15) = (   0.7500000  -0.2500000   0.7500000), wk =   0.0468750
        k(   16) = (   0.6250000  -0.1250000   0.6250000), wk =   0.0468750
        k(   17) = (   0.5000000   0.0000000   0.5000000), wk =   0.0234375
        k(   18) = (   0.0000000   0.7500000   0.0000000), wk =   0.0117188
        k(   19) = (   0.8750000  -0.1250000   0.8750000), wk =   0.0468750
        k(   20) = (   0.7500000   0.0000000   0.7500000), wk =   0.0234375
        k(   21) = (   0.0000000  -1.0000000   0.0000000), wk =   0.0058594
        k(   22) = (  -0.2500000   0.5000000   0.0000000), wk =   0.0468750
        k(   23) = (   0.6250000  -0.3750000   0.8750000), wk =   0.0937500
        k(   24) = (   0.5000000  -0.2500000   0.7500000), wk =   0.0468750
        k(   25) = (   0.7500000  -0.2500000   1.0000000), wk =   0.0468750
        k(   26) = (   0.6250000  -0.1250000   0.8750000), wk =   0.0937500
        k(   27) = (   0.5000000   0.0000000   0.7500000), wk =   0.0468750
        k(   28) = (  -0.2500000  -1.0000000   0.0000000), wk =   0.0234375
        k(   29) = (  -0.5000000  -1.0000000   0.0000000), wk =   0.0117188

     Dense  grid:    16625 G-vectors     FFT dimensions: (  36,  36,  36)

     Estimated max dynamical RAM per process >      83.41 MB

     Initial potential from superposition of free atoms

     starting charge    2.99774, renormalised to    3.00000
     Starting wfcs are    8 randomized atomic wfcs +    4 random wfcs

     total cpu time spent up to now is        2.1 secs

     Self-consistent Calculation

     iteration #  1     ecut=    60.00 Ry     beta= 0.70
     Davidson diagonalization with overlap
     ethr =  1.00E-02,  avg # of iterations =  6.3

     Threshold (ethr) on eigenvalues was too large:
     Diagonalizing with lowered threshold

     Davidson diagonalization with overlap
     ethr =  1.37E-04,  avg # of iterations =  4.7

     total cpu time spent up to now is       10.1 secs

     total energy              =      -4.93795863 Ry
     estimated scf accuracy    <       0.00375437 Ry

     iteration #  2     ecut=    60.00 Ry     beta= 0.70
     Davidson diagonalization with overlap
     ethr =  1.25E-04,  avg # of iterations =  1.0

     total cpu time spent up to now is       12.6 secs

     total energy              =      -4.93805253 Ry
     estimated scf accuracy    <       0.00018865 Ry

     iteration #  3     ecut=    60.00 Ry     beta= 0.70
     Davidson diagonalization with overlap
     c_bands:  1 eigenvalues not converged
     c_bands:  1 eigenvalues not converged
     ethr =  6.29E-06,  avg # of iterations =  5.5

     total cpu time spent up to now is       16.2 secs

     total energy              =      -4.93808172 Ry
     estimated scf accuracy    <       0.00000132 Ry

     iteration #  4     ecut=    60.00 Ry     beta= 0.70
     Davidson diagonalization with overlap
     ethr =  4.39E-08,  avg # of iterations =  4.2

     total cpu time spent up to now is       19.3 secs

     End of self-consistent calculation

          k = 0.0000 0.0000 0.0000 (  2085 PWs)   bands (ev):

    -5.0797  -5.0797   7.4462   7.4462   7.4867   7.4867   7.4867   7.4867
    10.2761  10.2761  10.2762  10.2762

          k =-0.1250 0.1250-0.1250 (  2079 PWs)   bands (ev):

    -4.8542  -4.8542   5.8344   5.8344   7.1934   7.1934   7.2181   7.2181
     9.9805   9.9807  10.7344  10.7361

          k =-0.2500 0.2500-0.2500 (  2067 PWs)   bands (ev):

    -4.1875  -4.1875   3.2829   3.2829   6.7784   6.7785   6.8017   6.8017
     9.4563   9.4563  10.7119  10.7136

          k =-0.3750 0.3750-0.3750 (  2072 PWs)   bands (ev):

    -3.1378  -3.1378   0.9951   0.9951   6.5173   6.5173   6.5407   6.5407
     9.1542   9.1543   9.9985   9.9990

          k = 0.5000-0.5000 0.5000 (  2060 PWs)   bands (ev):

    -2.2578  -2.2578  -0.3077  -0.3077   6.4368   6.4369   6.4605   6.4605
     9.0684   9.0684   9.7046   9.7046

          k = 0.0000 0.2500 0.0000 (  2077 PWs)   bands (ev):

    -4.7788  -4.7788   6.4785   6.4785   6.5482   6.5483   6.5661   6.5661
     9.0397   9.0399  11.2169  11.2172

          k =-0.1250 0.3750-0.1250 (  2065 PWs)   bands (ev):

    -4.2580  -4.2580   4.2378   4.2379   6.0135   6.0135   6.2987   6.2987
     8.9956   8.9956  10.2325  10.2326

          k =-0.2500 0.5000-0.2500 (  2072 PWs)   bands (ev):

    -3.3254  -3.3254   1.8702   1.8702   5.6619   5.6619   5.7828   5.7828
     8.6178   8.6178  10.6061  10.6061

          k = 0.6250-0.3750 0.6250 (  2080 PWs)   bands (ev):

    -2.2223  -2.2223   0.0804   0.0804   5.1134   5.1134   5.8920   5.8920
     8.5329   8.5329  10.5393  10.5410

          k = 0.5000-0.2500 0.5000 (  2083 PWs)   bands (ev):

    -2.5596  -2.5596   0.5588   0.5588   4.8084   4.8084   6.3036   6.3036
     9.0015   9.0015  10.3906  10.4432

          k = 0.3750-0.1250 0.3750 (  2078 PWs)   bands (ev):

    -3.6786  -3.6786   2.6316   2.6316   4.8464   4.8464   6.8954   6.8954
     9.9136   9.9140  10.5135  10.5150

          k = 0.2500 0.0000 0.2500 (  2067 PWs)   bands (ev):

    -4.4810  -4.4810   4.8873   4.8873   5.4591   5.4591   7.3728   7.3729
    10.3705  10.3714  10.9197  10.9219

          k = 0.0000 0.5000 0.0000 (  2045 PWs)   bands (ev):

    -3.8861  -3.8861   4.5363   4.5363   5.3356   5.3356   5.3535   5.3536
     7.5909   7.5910   8.3757   8.3758

          k =-0.1250 0.6250-0.1250 (  2079 PWs)   bands (ev):

    -3.0926  -3.0926   2.8648   2.8648   4.3193   4.3193   5.0086   5.0086
     7.3907   7.3907   8.6722   8.6722

          k = 0.7500-0.2500 0.7500 (  2081 PWs)   bands (ev):

    -2.0013  -2.0013   1.0405   1.0405   3.2909   3.2909   5.0523   5.0523
     7.3070   7.3071  10.6673  10.6675

          k = 0.6250-0.1250 0.6250 (  2088 PWs)   bands (ev):

    -1.7054  -1.7054   0.6598   0.6598   2.6842   2.6842   5.4671   5.4671
     7.7490   7.7490  12.1610  12.1650

          k = 0.5000 0.0000 0.5000 (  2085 PWs)   bands (ev):

    -2.7692  -2.7692   2.1713   2.1713   2.7467   2.7467   6.1809   6.1809
     8.6729   8.6729  11.7452  11.7460

          k = 0.0000 0.7500 0.0000 (  2084 PWs)   bands (ev):

    -2.4498  -2.4498   2.1912   2.1912   4.5422   4.5422   4.5593   4.5593
     6.6774   6.6774   6.7319   6.7319

          k = 0.8750-0.1250 0.8750 (  2089 PWs)   bands (ev):

    -1.5008  -1.5008   1.1306   1.1306   3.1023   3.1023   4.4780   4.4780
     6.5507   6.5507   8.0292   8.0292

          k = 0.7500 0.0000 0.7500 (  2085 PWs)   bands (ev):

    -0.9994  -0.9994   0.9969   0.9969   1.6070   1.6070   4.7965   4.7965
     6.9062   6.9062  10.4772  10.4772

          k = 0.0000-1.0000 0.0000 (  2100 PWs)   bands (ev):

    -1.0418  -1.0418   0.4042   0.4042   4.2713   4.2713   4.2882   4.2882
     6.2405   6.2405   6.3692   6.3693

          k =-0.2500 0.5000 0.0000 (  2074 PWs)   bands (ev):

    -3.6001  -3.6001   3.4266   3.4266   4.1314   4.1314   5.9661   5.9661
     9.3347   9.3347   9.4358   9.4358

          k = 0.6250-0.3750 0.8750 (  2080 PWs)   bands (ev):

    -2.5696  -2.5696   1.5080   1.5080   3.6558   3.6558   5.1770   5.1770
     9.0981   9.0981  10.2809  10.2809

          k = 0.5000-0.2500 0.7500 (  2092 PWs)   bands (ev):

    -1.7213  -1.7213   0.2708   0.2708   3.6366   3.6366   4.8067   4.8067
     9.0740   9.0740  10.0310  10.0311

          k = 0.7500-0.2500 1.0000 (  2085 PWs)   bands (ev):

    -2.2006  -2.2006   2.0413   2.0413   3.2838   3.2838   3.9392   3.9392
     8.2901   8.2902   8.5057   8.5057

          k = 0.6250-0.1250 0.8750 (  2092 PWs)   bands (ev):

    -1.2204  -1.2204   1.0589   1.0589   2.2251   2.2251   3.6925   3.6925
     8.5318   8.5318  10.5901  10.5901

          k = 0.5000 0.0000 0.7500 (  2091 PWs)   bands (ev):

    -1.5518  -1.5518   1.4644   1.4644   1.8763   1.8763   4.2228   4.2228
     9.0555   9.0556  11.4577  11.4614

          k =-0.2500-1.0000 0.0000 (  2098 PWs)   bands (ev):

    -0.9172  -0.9172   0.7009   0.7009   2.9967   2.9967   3.2387   3.2387
     7.9417   7.9418   8.2209   8.2210

          k =-0.5000-1.0000 0.0000 (  2120 PWs)   bands (ev):

    -0.7708  -0.7708   1.5773   1.5773   1.5881   1.5881   2.5878   2.5878
    10.0021  10.0022  11.3068  11.3126

     the Fermi energy is     1.4025 ev

!    total energy              =      -4.93808293 Ry
     estimated scf accuracy    <       0.00000006 Ry
     smearing contrib. (-TS)   =       0.00050436 Ry
     internal energy E=F+TS    =      -4.93858728 Ry

     The total energy is F=E-TS. E is the sum of the following terms:
     one-electron contribution =       1.29194461 Ry
     hartree contribution      =       0.08593202 Ry
     xc contribution           =      -2.27099738 Ry
     ewald contribution        =      -4.04546654 Ry

     convergence has been achieved in   4 iterations

     Writing output data file ./temp/Al.save/

     init_run     :      1.47s CPU      1.48s WALL (       1 calls)
     electrons    :     17.75s CPU     17.19s WALL (       1 calls)

     Called by init_run:
     wfcinit      :      1.00s CPU      0.99s WALL (       1 calls)
     potinit      :      0.04s CPU      0.04s WALL (       1 calls)
     hinit0       :      0.40s CPU      0.40s WALL (       1 calls)

     Called by electrons:
     c_bands      :     14.91s CPU     14.33s WALL (       5 calls)
     sum_band     :      2.60s CPU      2.58s WALL (       5 calls)
     v_of_rho     :      0.13s CPU      0.14s WALL (       5 calls)
     newd         :      0.10s CPU      0.12s WALL (       5 calls)
     mix_rho      :      0.04s CPU      0.05s WALL (       5 calls)

     Called by c_bands:
     init_us_2    :      0.20s CPU      0.20s WALL (     319 calls)
     cegterg      :     14.25s CPU     13.67s WALL (     145 calls)

     Called by *egterg:
     cdiaghg      :      0.15s CPU      0.15s WALL (     744 calls)
     h_psi        :     12.18s CPU     12.17s WALL (     802 calls)
     s_psi        :      0.30s CPU      0.19s WALL (     802 calls)
     g_psi        :      0.22s CPU      0.22s WALL (     628 calls)

     Called by h_psi:
     h_psi:calbec :      0.27s CPU      0.28s WALL (     802 calls)
     vloc_psi     :     11.55s CPU     11.63s WALL (     802 calls)
     add_vuspsi   :      0.30s CPU      0.21s WALL (     802 calls)

     General routines
     calbec       :      0.36s CPU      0.36s WALL (     947 calls)
     fft          :      0.06s CPU      0.06s WALL (      68 calls)
     ffts         :      0.02s CPU      0.02s WALL (      20 calls)
     fftw         :     11.80s CPU     11.86s WALL (   24868 calls)

     Parallel routines

     PWSCF        :     19.84s CPU     19.73s WALL


   This run was terminated on:  12:49: 5   2Apr2025            

=------------------------------------------------------------------------------=
   JOB DONE.
=------------------------------------------------------------------------------=
