
     Program PWSCF v.6.6 starts on  2Apr2025 at 12:48:28 

     This program is part of the open-source Quantum ESPRESSO suite
     for quantum simulation of materials; please cite
         "P. Giannozzi et al., J. Phys.:Condens. Matter 21 395502 (2009);
         "P. Giannozzi et al., J. Phys.:Condens. Matter 29 465901 (2017);
          URL http://www.quantum-espresso.org", 
     in publications or presentations arising from this work. More details at
     http://www.quantum-espresso.org/quote

     Parallel version (MPI), running on     1 processors

     MPI processes distributed on     1 nodes
     Fft bands division:     nmany     =       1
     Reading input from Al.scf.60.444.in

     Current dimensions of program PWSCF are:
     Max number of different atomic species (ntypx) = 10
     Max number of k-points (npk) =  40000
     Max angular momentum in pseudopotentials (lmaxx) =  3

     Subspace diagonalization in iterative solution of the eigenvalue problem:
     a serial algorithm will be used


     G-vector sticks info
     --------------------
     sticks:   dense  smooth     PW     G-vecs:    dense   smooth      PW
     Sum         859     859    253                16625    16625    2733



     bravais-lattice index     =            2
     lattice parameter (alat)  =      10.2000  a.u.
     unit-cell volume          =     265.3020 (a.u.)^3
     number of atoms/cell      =            1
     number of atomic types    =            1
     number of electrons       =         3.00
     number of Kohn-Sham states=           12
     kinetic-energy cutoff     =      60.0000  Ry
     charge density cutoff     =     240.0000  Ry
     convergence threshold     =      1.0E-06
     mixing beta               =       0.7000
     number of iterations used =            8  plain     mixing
     Exchange-correlation= PBE
                           (   1   4   3   4   0   0   0)
     Non magnetic calculation with spin-orbit


     celldm(1)=  10.200000  celldm(2)=   0.000000  celldm(3)=   0.000000
     celldm(4)=   0.000000  celldm(5)=   0.000000  celldm(6)=   0.000000

     crystal axes: (cart. coord. in units of alat)
               a(1) = (  -0.500000   0.000000   0.500000 )  
               a(2) = (   0.000000   0.500000   0.500000 )  
               a(3) = (  -0.500000   0.500000   0.000000 )  

     reciprocal axes: (cart. coord. in units 2 pi/alat)
               b(1) = ( -1.000000 -1.000000  1.000000 )  
               b(2) = (  1.000000  1.000000  1.000000 )  
               b(3) = ( -1.000000  1.000000 -1.000000 )  


     PseudoPot. # 1 for Al read from file:
     ../pseudo/Al.rel-pbe-nl-rrkjus_psl.1.0.0.UPF
     MD5 check sum: 49f37f8fe9babba23f1e8de5949893df
     Pseudo is Ultrasoft + core correction, Zval =  3.0
     Generated using "atomic" code by A. Dal Corso v.6.3
     Using radial grid of 1135 points,  6 beta functions with: 
                l(1) =   0
                l(2) =   0
                l(3) =   1
                l(4) =   1
                l(5) =   1
                l(6) =   1
     Q(r) pseudized with 0 coefficients 


     atomic species   valence    mass     pseudopotential
        Al             3.00    26.98000     Al( 1.00)

     48 Sym. Ops., with inversion, found



   Cartesian axes

     site n.     atom                  positions (alat units)
         1           Al  tau(   1) = (   0.0000000   0.0000000   0.0000000  )

     number of k points=     8  Marzari-Vanderbilt smearing, width (Ry)=  0.0200
                       cart. coord. in units 2pi/alat
        k(    1) = (   0.0000000   0.0000000   0.0000000), wk =   0.0156250
        k(    2) = (  -0.2500000   0.2500000  -0.2500000), wk =   0.1250000
        k(    3) = (   0.5000000  -0.5000000   0.5000000), wk =   0.0625000
        k(    4) = (   0.0000000   0.5000000   0.0000000), wk =   0.0937500
        k(    5) = (   0.7500000  -0.2500000   0.7500000), wk =   0.3750000
        k(    6) = (   0.5000000   0.0000000   0.5000000), wk =   0.1875000
        k(    7) = (   0.0000000  -1.0000000   0.0000000), wk =   0.0468750
        k(    8) = (  -0.5000000  -1.0000000   0.0000000), wk =   0.0937500

     Dense  grid:    16625 G-vectors     FFT dimensions: (  36,  36,  36)

     Estimated max dynamical RAM per process >      67.40 MB

     Initial potential from superposition of free atoms

     starting charge    2.99774, renormalised to    3.00000
     Starting wfcs are    8 randomized atomic wfcs +    4 random wfcs

     total cpu time spent up to now is        1.3 secs

     Self-consistent Calculation

     iteration #  1     ecut=    60.00 Ry     beta= 0.70
     Davidson diagonalization with overlap
     ethr =  1.00E-02,  avg # of iterations =  6.2

     Threshold (ethr) on eigenvalues was too large:
     Diagonalizing with lowered threshold

     Davidson diagonalization with overlap
     ethr =  1.15E-04,  avg # of iterations =  5.5

     total cpu time spent up to now is        3.6 secs

     total energy              =      -4.93508301 Ry
     estimated scf accuracy    <       0.00302423 Ry

     iteration #  2     ecut=    60.00 Ry     beta= 0.70
     Davidson diagonalization with overlap
     ethr =  1.01E-04,  avg # of iterations =  1.0

     total cpu time spent up to now is        4.3 secs

     total energy              =      -4.93515134 Ry
     estimated scf accuracy    <       0.00015273 Ry

     iteration #  3     ecut=    60.00 Ry     beta= 0.70
     Davidson diagonalization with overlap
     ethr =  5.09E-06,  avg # of iterations =  5.9

     total cpu time spent up to now is        5.4 secs

     total energy              =      -4.93517583 Ry
     estimated scf accuracy    <       0.00000112 Ry

     iteration #  4     ecut=    60.00 Ry     beta= 0.70
     Davidson diagonalization with overlap
     ethr =  3.73E-08,  avg # of iterations =  2.8

     total cpu time spent up to now is        6.2 secs

     End of self-consistent calculation

          k = 0.0000 0.0000 0.0000 (  2085 PWs)   bands (ev):

    -5.0703  -5.0703   7.4585   7.4585   7.4990   7.4990   7.4990   7.4990
    10.2859  10.2859  10.2859  10.2859

          k =-0.2500 0.2500-0.2500 (  2067 PWs)   bands (ev):

    -4.1776  -4.1776   3.2923   3.2923   6.7905   6.7905   6.8138   6.8138
     9.4685   9.4686  10.7203  10.7215

          k = 0.5000-0.5000 0.5000 (  2060 PWs)   bands (ev):

    -2.2453  -2.2453  -0.3015  -0.3015   6.4494   6.4494   6.4730   6.4730
     9.0825   9.0825   9.7106   9.7106

          k = 0.0000 0.5000 0.0000 (  2045 PWs)   bands (ev):

    -3.8761  -3.8761   4.5491   4.5491   5.3460   5.3460   5.3639   5.3639
     7.6017   7.6017   8.3744   8.3744

          k = 0.7500-0.2500 0.7500 (  2081 PWs)   bands (ev):

    -1.9897  -1.9897   1.0491   1.0491   3.3010   3.3010   5.0627   5.0628
     7.3109   7.3109  10.6756  10.6757

          k = 0.5000 0.0000 0.5000 (  2085 PWs)   bands (ev):

    -2.7584  -2.7584   2.1798   2.1798   2.7568   2.7568   6.1925   6.1925
     8.6779   8.6779  11.7512  11.7516

          k = 0.0000-1.0000 0.0000 (  2100 PWs)   bands (ev):

    -1.0292  -1.0292   0.4141   0.4141   4.2813   4.2813   4.2982   4.2982
     6.2384   6.2384   6.3802   6.3802

          k =-0.5000-1.0000 0.0000 (  2120 PWs)   bands (ev):

    -0.7567  -0.7567   1.5872   1.5872   1.5980   1.5980   2.5909   2.5909
    10.0057  10.0057  11.3188  11.3237

     the Fermi energy is     1.3211 ev

!    total energy              =      -4.93517659 Ry
     estimated scf accuracy    <       0.00000005 Ry
     smearing contrib. (-TS)   =       0.00133036 Ry
     internal energy E=F+TS    =      -4.93650696 Ry

     The total energy is F=E-TS. E is the sum of the following terms:
     one-electron contribution =       1.29457076 Ry
     hartree contribution      =       0.08853716 Ry
     xc contribution           =      -2.27414834 Ry
     ewald contribution        =      -4.04546654 Ry

     convergence has been achieved in   4 iterations

     Writing output data file ./temp/Al.save/

     init_run     :      0.72s CPU      0.73s WALL (       1 calls)
     electrons    :      5.00s CPU      4.85s WALL (       1 calls)

     Called by init_run:
     wfcinit      :      0.27s CPU      0.27s WALL (       1 calls)
     potinit      :      0.03s CPU      0.04s WALL (       1 calls)
     hinit0       :      0.38s CPU      0.38s WALL (       1 calls)

     Called by electrons:
     c_bands      :      3.96s CPU      3.81s WALL (       5 calls)
     sum_band     :      0.81s CPU      0.78s WALL (       5 calls)
     v_of_rho     :      0.13s CPU      0.14s WALL (       5 calls)
     newd         :      0.10s CPU      0.12s WALL (       5 calls)
     mix_rho      :      0.03s CPU      0.05s WALL (       5 calls)

     Called by c_bands:
     init_us_2    :      0.05s CPU      0.05s WALL (      88 calls)
     cegterg      :      3.78s CPU      3.63s WALL (      40 calls)

     Called by *egterg:
     cdiaghg      :      0.04s CPU      0.04s WALL (     203 calls)
     h_psi        :      3.20s CPU      3.20s WALL (     219 calls)
     s_psi        :      0.08s CPU      0.05s WALL (     219 calls)
     g_psi        :      0.06s CPU      0.06s WALL (     171 calls)

     Called by h_psi:
     h_psi:calbec :      0.07s CPU      0.07s WALL (     219 calls)
     vloc_psi     :      3.03s CPU      3.06s WALL (     219 calls)
     add_vuspsi   :      0.08s CPU      0.06s WALL (     219 calls)

     General routines
     calbec       :      0.10s CPU      0.10s WALL (     259 calls)
     fft          :      0.06s CPU      0.06s WALL (      68 calls)
     ffts         :      0.02s CPU      0.02s WALL (      20 calls)
     fftw         :      3.09s CPU      3.11s WALL (    6788 calls)

     Parallel routines

     PWSCF        :      6.33s CPU      6.24s WALL


   This run was terminated on:  12:48:34   2Apr2025            

=------------------------------------------------------------------------------=
   JOB DONE.
=------------------------------------------------------------------------------=
